/*--------------------------------*- C++ -*----------------------------------*\
  =========                 |
  \\      /  F ield         | OpenFOAM: The Open Source CFD Toolbox
   \\    /   O peration     | Website:  https://openfoam.org
    \\  /    A nd           | Version:  7
     \\/     M anipulation  |
\*---------------------------------------------------------------------------*/
FoamFile
{
    version     2.0;
    format      ascii;
    class       volScalarField;
    location    "0.047";
    object      gradTy;
}
// * * * * * * * * * * * * * * * * * * * * * * * * * * * * * * * * * * * * * //

dimensions      [0 -1 0 1 0 0 0];

internalField   nonuniform List<scalar> 
10000
(
3.10226e-06
3.09167e-06
3.08108e-06
3.10226e-06
3.08108e-06
3.09167e-06
3.07049e-06
3.07049e-06
3.08108e-06
3.04932e-06
3.07049e-06
3.05991e-06
3.07049e-06
3.07049e-06
3.08108e-06
3.04932e-06
3.03873e-06
3.02814e-06
3.02814e-06
3.02814e-06
3.01755e-06
3.01755e-06
2.99638e-06
3.00697e-06
2.98579e-06
2.96462e-06
2.9752e-06
2.98579e-06
2.9752e-06
2.94344e-06
2.94344e-06
2.93285e-06
2.93285e-06
2.93285e-06
2.90109e-06
2.92226e-06
2.90109e-06
2.8905e-06
2.87991e-06
2.87991e-06
2.8905e-06
2.86932e-06
2.85874e-06
2.86932e-06
2.84815e-06
2.87991e-06
2.84815e-06
2.86932e-06
2.86932e-06
2.86932e-06
2.85874e-06
2.84815e-06
2.86932e-06
2.87991e-06
2.85874e-06
2.86932e-06
2.87991e-06
2.87991e-06
2.87991e-06
2.86932e-06
2.8905e-06
2.8905e-06
2.91168e-06
2.90109e-06
2.91168e-06
2.92226e-06
2.91168e-06
2.93285e-06
2.93285e-06
2.92226e-06
2.94344e-06
2.9752e-06
2.9752e-06
2.98579e-06
2.98579e-06
2.98579e-06
2.98579e-06
2.99638e-06
3.00697e-06
3.02814e-06
3.03873e-06
3.03873e-06
3.03873e-06
3.04932e-06
3.04932e-06
3.04932e-06
3.07049e-06
3.07049e-06
3.03873e-06
3.08108e-06
3.08108e-06
3.08108e-06
3.09167e-06
3.08108e-06
3.09167e-06
3.09167e-06
3.10226e-06
3.08108e-06
3.09167e-06
3.10226e-06
9.2856e-06
9.29619e-06
9.26442e-06
9.27501e-06
9.25383e-06
9.26442e-06
9.24325e-06
9.24325e-06
9.24325e-06
9.22207e-06
9.2009e-06
9.16913e-06
9.15854e-06
9.15854e-06
9.13737e-06
9.12678e-06
9.09502e-06
9.09502e-06
9.06325e-06
9.06325e-06
9.0209e-06
9.01031e-06
8.97855e-06
8.94679e-06
8.92561e-06
8.91502e-06
8.90443e-06
8.88326e-06
8.87267e-06
8.83032e-06
8.80914e-06
8.77738e-06
8.77738e-06
8.7562e-06
8.74562e-06
8.72444e-06
8.69268e-06
8.69268e-06
8.65032e-06
8.65032e-06
8.62915e-06
8.62915e-06
8.61856e-06
8.60797e-06
8.5868e-06
8.57621e-06
8.57621e-06
8.56562e-06
8.56562e-06
8.57621e-06
8.56562e-06
8.56562e-06
8.56562e-06
8.59738e-06
8.5868e-06
8.5868e-06
8.60797e-06
8.60797e-06
8.61856e-06
8.61856e-06
8.62915e-06
8.63974e-06
8.6715e-06
8.69268e-06
8.71385e-06
8.72444e-06
8.7562e-06
8.76679e-06
8.7562e-06
8.79855e-06
8.81973e-06
8.85149e-06
8.86208e-06
8.89385e-06
8.91502e-06
8.9362e-06
8.95737e-06
8.98914e-06
8.99973e-06
9.01031e-06
9.04208e-06
9.06325e-06
9.08443e-06
9.1056e-06
9.13737e-06
9.14796e-06
9.15854e-06
9.17972e-06
9.2009e-06
9.21148e-06
9.23266e-06
9.24325e-06
9.25383e-06
9.24325e-06
9.24325e-06
9.26442e-06
9.27501e-06
9.27501e-06
9.27501e-06
9.2856e-06
1.5416e-05
1.5416e-05
1.54266e-05
1.54054e-05
1.53948e-05
1.53948e-05
1.53948e-05
1.53525e-05
1.53419e-05
1.53313e-05
1.52784e-05
1.52678e-05
1.5236e-05
1.52148e-05
1.51725e-05
1.51513e-05
1.5109e-05
1.50984e-05
1.50878e-05
1.50454e-05
1.49925e-05
1.49607e-05
1.49395e-05
1.48654e-05
1.48443e-05
1.48019e-05
1.47807e-05
1.4749e-05
1.47066e-05
1.46643e-05
1.46537e-05
1.45901e-05
1.4569e-05
1.45266e-05
1.45054e-05
1.44737e-05
1.44419e-05
1.44101e-05
1.44101e-05
1.43678e-05
1.43466e-05
1.43254e-05
1.43254e-05
1.42937e-05
1.42937e-05
1.42725e-05
1.42619e-05
1.42513e-05
1.42513e-05
1.42302e-05
1.42196e-05
1.42196e-05
1.42513e-05
1.42407e-05
1.42407e-05
1.42513e-05
1.42725e-05
1.42831e-05
1.43149e-05
1.43254e-05
1.4336e-05
1.43678e-05
1.43996e-05
1.44419e-05
1.44631e-05
1.44843e-05
1.45266e-05
1.45584e-05
1.45796e-05
1.46219e-05
1.46431e-05
1.46748e-05
1.47384e-05
1.4749e-05
1.47913e-05
1.48443e-05
1.4876e-05
1.48866e-05
1.49501e-05
1.49713e-05
1.50242e-05
1.5056e-05
1.50984e-05
1.5109e-05
1.51619e-05
1.51725e-05
1.52042e-05
1.52254e-05
1.52784e-05
1.52889e-05
1.53101e-05
1.53631e-05
1.53631e-05
1.53842e-05
1.53631e-05
1.53948e-05
1.54054e-05
1.54266e-05
1.54266e-05
1.5416e-05
2.15146e-05
2.15146e-05
2.15146e-05
2.14935e-05
2.14829e-05
2.14723e-05
2.14511e-05
2.14193e-05
2.13982e-05
2.13558e-05
2.13346e-05
2.12923e-05
2.12711e-05
2.12182e-05
2.11864e-05
2.11441e-05
2.11123e-05
2.10699e-05
2.10064e-05
2.09641e-05
2.09323e-05
2.08794e-05
2.08158e-05
2.07629e-05
2.06888e-05
2.06464e-05
2.06041e-05
2.053e-05
2.04876e-05
2.04453e-05
2.04029e-05
2.03817e-05
2.03182e-05
2.02759e-05
2.02229e-05
2.017e-05
2.01276e-05
2.0117e-05
2.00747e-05
2.00535e-05
2.00217e-05
2.00006e-05
1.99476e-05
1.99476e-05
1.99159e-05
1.99265e-05
1.98947e-05
1.98841e-05
1.98735e-05
1.98523e-05
1.98735e-05
1.98947e-05
1.98629e-05
1.98841e-05
1.98841e-05
1.99265e-05
1.99265e-05
1.99476e-05
1.99582e-05
1.999e-05
2.00217e-05
2.00535e-05
2.00959e-05
2.01382e-05
2.01806e-05
2.02229e-05
2.02653e-05
2.03076e-05
2.035e-05
2.03817e-05
2.04347e-05
2.0477e-05
2.053e-05
2.05723e-05
2.06358e-05
2.06888e-05
2.07417e-05
2.08158e-05
2.08582e-05
2.09005e-05
2.09641e-05
2.1017e-05
2.10594e-05
2.11017e-05
2.11229e-05
2.11546e-05
2.1197e-05
2.12394e-05
2.12923e-05
2.13346e-05
2.13664e-05
2.13982e-05
2.14193e-05
2.14405e-05
2.14829e-05
2.14723e-05
2.14829e-05
2.1504e-05
2.1504e-05
2.14935e-05
2.75074e-05
2.75074e-05
2.74968e-05
2.74756e-05
2.7465e-05
2.74333e-05
2.74227e-05
2.74015e-05
2.73592e-05
2.73168e-05
2.72639e-05
2.72215e-05
2.71898e-05
2.71474e-05
2.70945e-05
2.70309e-05
2.69886e-05
2.69145e-05
2.68615e-05
2.68086e-05
2.67662e-05
2.66921e-05
2.66074e-05
2.65651e-05
2.64698e-05
2.6438e-05
2.63533e-05
2.62898e-05
2.62157e-05
2.61627e-05
2.60992e-05
2.60357e-05
2.59827e-05
2.59192e-05
2.58769e-05
2.58239e-05
2.5771e-05
2.5718e-05
2.56863e-05
2.56439e-05
2.56016e-05
2.55804e-05
2.5538e-05
2.55063e-05
2.54851e-05
2.54745e-05
2.54639e-05
2.54428e-05
2.5411e-05
2.54216e-05
2.54322e-05
2.54322e-05
2.54322e-05
2.54428e-05
2.54639e-05
2.54639e-05
2.55063e-05
2.55063e-05
2.55486e-05
2.55804e-05
2.56333e-05
2.56757e-05
2.5718e-05
2.57498e-05
2.57922e-05
2.58345e-05
2.59192e-05
2.59721e-05
2.60463e-05
2.60886e-05
2.61416e-05
2.62051e-05
2.62686e-05
2.63321e-05
2.64063e-05
2.64592e-05
2.65333e-05
2.66286e-05
2.66604e-05
2.67345e-05
2.67874e-05
2.68509e-05
2.69145e-05
2.6978e-05
2.70309e-05
2.70733e-05
2.71262e-05
2.72003e-05
2.72215e-05
2.72745e-05
2.73168e-05
2.73592e-05
2.73909e-05
2.74121e-05
2.74439e-05
2.7465e-05
2.74862e-05
2.74862e-05
2.75074e-05
2.75074e-05
3.34154e-05
3.34154e-05
3.33837e-05
3.33625e-05
3.33625e-05
3.33307e-05
3.3299e-05
3.32778e-05
3.32355e-05
3.31931e-05
3.3119e-05
3.3066e-05
3.30131e-05
3.29813e-05
3.28966e-05
3.28331e-05
3.27696e-05
3.27166e-05
3.26319e-05
3.2579e-05
3.24943e-05
3.24202e-05
3.23249e-05
3.22614e-05
3.21873e-05
3.20814e-05
3.19861e-05
3.19226e-05
3.18484e-05
3.17849e-05
3.16896e-05
3.16261e-05
3.15414e-05
3.14884e-05
3.14249e-05
3.13402e-05
3.1319e-05
3.12238e-05
3.11814e-05
3.11285e-05
3.10861e-05
3.10332e-05
3.10014e-05
3.09591e-05
3.09591e-05
3.09273e-05
3.09061e-05
3.08955e-05
3.08955e-05
3.08744e-05
3.08744e-05
3.08638e-05
3.08849e-05
3.08849e-05
3.09273e-05
3.09379e-05
3.09591e-05
3.10014e-05
3.10332e-05
3.10755e-05
3.11285e-05
3.11708e-05
3.12238e-05
3.12767e-05
3.13402e-05
3.14143e-05
3.14673e-05
3.15414e-05
3.16049e-05
3.1679e-05
3.17426e-05
3.18379e-05
3.19226e-05
3.19861e-05
3.20708e-05
3.21555e-05
3.22296e-05
3.23143e-05
3.23778e-05
3.24625e-05
3.25261e-05
3.26108e-05
3.26955e-05
3.2759e-05
3.28119e-05
3.28861e-05
3.29602e-05
3.30237e-05
3.3066e-05
3.3119e-05
3.31613e-05
3.32037e-05
3.32566e-05
3.32778e-05
3.3299e-05
3.33519e-05
3.33731e-05
3.33731e-05
3.33837e-05
3.34154e-05
3.91541e-05
3.91329e-05
3.91223e-05
3.91117e-05
3.90906e-05
3.90588e-05
3.90376e-05
3.89953e-05
3.89635e-05
3.89106e-05
3.88682e-05
3.87835e-05
3.87094e-05
3.86353e-05
3.85824e-05
3.85082e-05
3.84447e-05
3.83282e-05
3.82435e-05
3.81482e-05
3.80847e-05
3.79788e-05
3.79153e-05
3.78094e-05
3.77247e-05
3.75977e-05
3.75024e-05
3.74177e-05
3.7333e-05
3.72271e-05
3.71636e-05
3.70789e-05
3.70048e-05
3.692e-05
3.68036e-05
3.67506e-05
3.66554e-05
3.66236e-05
3.65601e-05
3.64965e-05
3.6433e-05
3.63907e-05
3.63589e-05
3.63377e-05
3.62636e-05
3.62424e-05
3.62424e-05
3.62107e-05
3.62001e-05
3.62107e-05
3.61789e-05
3.61895e-05
3.61895e-05
3.62212e-05
3.62318e-05
3.62636e-05
3.62954e-05
3.63483e-05
3.63801e-05
3.6433e-05
3.64965e-05
3.65495e-05
3.6613e-05
3.66871e-05
3.67612e-05
3.68353e-05
3.69095e-05
3.69836e-05
3.70577e-05
3.71318e-05
3.72377e-05
3.73224e-05
3.74071e-05
3.75236e-05
3.75871e-05
3.76824e-05
3.77988e-05
3.7873e-05
3.79577e-05
3.80635e-05
3.81588e-05
3.82435e-05
3.83282e-05
3.83918e-05
3.84871e-05
3.85824e-05
3.86459e-05
3.87094e-05
3.87835e-05
3.88259e-05
3.88894e-05
3.89318e-05
3.89741e-05
3.90376e-05
3.90694e-05
3.908e-05
3.91329e-05
3.91435e-05
3.91541e-05
3.91647e-05
4.47339e-05
4.47445e-05
4.47445e-05
4.47339e-05
4.47022e-05
4.46916e-05
4.46069e-05
4.45751e-05
4.45116e-05
4.44798e-05
4.44163e-05
4.43316e-05
4.42681e-05
4.41834e-05
4.41092e-05
4.40139e-05
4.39187e-05
4.3834e-05
4.37281e-05
4.36222e-05
4.35163e-05
4.34316e-05
4.33257e-05
4.32199e-05
4.3114e-05
4.30187e-05
4.29128e-05
4.27858e-05
4.26905e-05
4.25846e-05
4.24893e-05
4.23834e-05
4.23093e-05
4.21822e-05
4.20975e-05
4.20234e-05
4.19387e-05
4.18752e-05
4.17905e-05
4.17164e-05
4.16528e-05
4.16105e-05
4.15364e-05
4.1494e-05
4.14623e-05
4.14305e-05
4.13881e-05
4.13881e-05
4.13564e-05
4.13458e-05
4.13458e-05
4.13564e-05
4.13881e-05
4.13987e-05
4.14199e-05
4.14623e-05
4.15152e-05
4.15364e-05
4.15999e-05
4.16634e-05
4.17058e-05
4.17693e-05
4.1854e-05
4.19281e-05
4.20022e-05
4.21081e-05
4.21822e-05
4.22881e-05
4.23834e-05
4.24681e-05
4.2574e-05
4.26693e-05
4.27646e-05
4.28705e-05
4.29657e-05
4.30928e-05
4.31987e-05
4.3294e-05
4.34316e-05
4.35269e-05
4.36222e-05
4.37281e-05
4.38128e-05
4.39187e-05
4.40245e-05
4.40987e-05
4.41728e-05
4.42469e-05
4.43422e-05
4.44057e-05
4.44692e-05
4.45222e-05
4.45751e-05
4.46175e-05
4.46598e-05
4.47022e-05
4.47022e-05
4.47551e-05
4.47551e-05
4.47551e-05
5.01761e-05
5.01973e-05
5.01549e-05
5.01549e-05
5.01338e-05
5.00808e-05
5.00491e-05
4.99855e-05
4.99326e-05
4.98479e-05
4.97844e-05
4.97314e-05
4.96467e-05
4.95514e-05
4.94455e-05
4.93608e-05
4.92338e-05
4.91385e-05
4.90432e-05
4.89162e-05
4.87891e-05
4.86938e-05
4.85879e-05
4.84715e-05
4.8355e-05
4.82385e-05
4.81115e-05
4.7995e-05
4.78785e-05
4.77621e-05
4.76562e-05
4.75397e-05
4.74021e-05
4.73174e-05
4.72327e-05
4.71268e-05
4.70633e-05
4.6968e-05
4.68621e-05
4.67986e-05
4.67139e-05
4.66503e-05
4.65974e-05
4.65233e-05
4.64809e-05
4.6428e-05
4.64068e-05
4.63751e-05
4.63751e-05
4.63645e-05
4.63856e-05
4.63856e-05
4.63962e-05
4.64174e-05
4.64386e-05
4.64809e-05
4.65233e-05
4.65974e-05
4.66609e-05
4.66927e-05
4.67774e-05
4.68409e-05
4.6915e-05
4.70103e-05
4.71056e-05
4.72009e-05
4.72962e-05
4.74127e-05
4.7508e-05
4.76562e-05
4.77515e-05
4.78679e-05
4.79738e-05
4.80797e-05
4.82068e-05
4.83126e-05
4.84397e-05
4.85562e-05
4.87044e-05
4.88103e-05
4.89373e-05
4.90326e-05
4.91491e-05
4.92656e-05
4.93503e-05
4.94455e-05
4.95726e-05
4.96361e-05
4.97102e-05
4.98055e-05
4.98585e-05
4.99008e-05
4.99749e-05
5.00279e-05
5.00491e-05
5.0102e-05
5.01232e-05
5.01444e-05
5.01761e-05
5.01761e-05
5.54489e-05
5.5396e-05
5.54171e-05
5.53854e-05
5.53324e-05
5.53007e-05
5.52583e-05
5.51948e-05
5.51418e-05
5.50677e-05
5.49936e-05
5.49195e-05
5.48242e-05
5.47183e-05
5.46124e-05
5.4496e-05
5.43901e-05
5.4263e-05
5.41572e-05
5.40407e-05
5.39136e-05
5.37654e-05
5.36384e-05
5.35219e-05
5.33948e-05
5.32572e-05
5.31196e-05
5.29925e-05
5.28549e-05
5.2749e-05
5.26113e-05
5.25055e-05
5.23572e-05
5.22619e-05
5.21349e-05
5.2029e-05
5.19443e-05
5.18278e-05
5.17537e-05
5.16372e-05
5.15843e-05
5.14996e-05
5.14255e-05
5.13725e-05
5.13302e-05
5.12984e-05
5.12667e-05
5.12455e-05
5.12243e-05
5.12137e-05
5.12031e-05
5.12349e-05
5.12349e-05
5.12455e-05
5.1309e-05
5.13196e-05
5.13725e-05
5.14255e-05
5.15102e-05
5.15949e-05
5.16584e-05
5.17325e-05
5.18172e-05
5.19125e-05
5.20078e-05
5.21137e-05
5.22302e-05
5.23678e-05
5.25055e-05
5.26431e-05
5.2749e-05
5.28549e-05
5.29819e-05
5.3109e-05
5.3236e-05
5.33631e-05
5.35007e-05
5.36278e-05
5.37548e-05
5.38925e-05
5.40301e-05
5.41572e-05
5.42842e-05
5.44007e-05
5.4496e-05
5.46336e-05
5.47395e-05
5.48348e-05
5.49089e-05
5.49724e-05
5.50571e-05
5.51207e-05
5.51736e-05
5.52265e-05
5.52901e-05
5.53113e-05
5.53536e-05
5.53854e-05
5.54277e-05
5.54277e-05
6.04252e-05
6.04146e-05
6.0404e-05
6.03617e-05
6.03511e-05
6.02876e-05
6.02558e-05
6.02135e-05
6.01076e-05
6.00546e-05
5.99593e-05
5.98641e-05
5.97476e-05
5.96629e-05
5.95464e-05
5.94194e-05
5.92923e-05
5.91547e-05
5.90276e-05
5.89111e-05
5.87523e-05
5.86359e-05
5.84982e-05
5.83394e-05
5.81912e-05
5.80641e-05
5.79265e-05
5.77782e-05
5.76194e-05
5.75029e-05
5.73441e-05
5.72065e-05
5.70794e-05
5.6963e-05
5.68465e-05
5.673e-05
5.6603e-05
5.64971e-05
5.64018e-05
5.63277e-05
5.62324e-05
5.61477e-05
5.60948e-05
5.60418e-05
5.59889e-05
5.59254e-05
5.59148e-05
5.58618e-05
5.58512e-05
5.58618e-05
5.58512e-05
5.58406e-05
5.58512e-05
5.59042e-05
5.59254e-05
5.59677e-05
5.60206e-05
5.60842e-05
5.61477e-05
5.6243e-05
5.63065e-05
5.64018e-05
5.64971e-05
5.66136e-05
5.67406e-05
5.68465e-05
5.69841e-05
5.71006e-05
5.72277e-05
5.73653e-05
5.75029e-05
5.76512e-05
5.77888e-05
5.79265e-05
5.80747e-05
5.82123e-05
5.83288e-05
5.84876e-05
5.86464e-05
5.87947e-05
5.89111e-05
5.90594e-05
5.91864e-05
5.93029e-05
5.94405e-05
5.95676e-05
5.96629e-05
5.97688e-05
5.98852e-05
5.99488e-05
6.0044e-05
6.01288e-05
6.01923e-05
6.02452e-05
6.03087e-05
6.03087e-05
6.03511e-05
6.03934e-05
6.0404e-05
6.04358e-05
6.51898e-05
6.52109e-05
6.51792e-05
6.51474e-05
6.51051e-05
6.50733e-05
6.50098e-05
6.49251e-05
6.4851e-05
6.47874e-05
6.47027e-05
6.45863e-05
6.45016e-05
6.43745e-05
6.42686e-05
6.41416e-05
6.39933e-05
6.38557e-05
6.37075e-05
6.35381e-05
6.3411e-05
6.32522e-05
6.3104e-05
6.29451e-05
6.28075e-05
6.26275e-05
6.24899e-05
6.23416e-05
6.2204e-05
6.20346e-05
6.18758e-05
6.17381e-05
6.16111e-05
6.14628e-05
6.13569e-05
6.12299e-05
6.11028e-05
6.09758e-05
6.08699e-05
6.07958e-05
6.06899e-05
6.06052e-05
6.05417e-05
6.0457e-05
6.04146e-05
6.03723e-05
6.03193e-05
6.0277e-05
6.02664e-05
6.02558e-05
6.02558e-05
6.02664e-05
6.02664e-05
6.02876e-05
6.03405e-05
6.03934e-05
6.04464e-05
6.05205e-05
6.05946e-05
6.06476e-05
6.0764e-05
6.08699e-05
6.09758e-05
6.11028e-05
6.12193e-05
6.13358e-05
6.14628e-05
6.15899e-05
6.17487e-05
6.18652e-05
6.20452e-05
6.2204e-05
6.23628e-05
6.25004e-05
6.26487e-05
6.28075e-05
6.29875e-05
6.31357e-05
6.32734e-05
6.34216e-05
6.3591e-05
6.37286e-05
6.38769e-05
6.40039e-05
6.41416e-05
6.4258e-05
6.43745e-05
6.45016e-05
6.45969e-05
6.47133e-05
6.47768e-05
6.48827e-05
6.49463e-05
6.50098e-05
6.50521e-05
6.51051e-05
6.51474e-05
6.51686e-05
6.52004e-05
6.52109e-05
6.97108e-05
6.97002e-05
6.97002e-05
6.96685e-05
6.96155e-05
6.95626e-05
6.94885e-05
6.94144e-05
6.93508e-05
6.92344e-05
6.91708e-05
6.90649e-05
6.89591e-05
6.8832e-05
6.86944e-05
6.85885e-05
6.84403e-05
6.82814e-05
6.81014e-05
6.79638e-05
6.7805e-05
6.7625e-05
6.74662e-05
6.73179e-05
6.71485e-05
6.69791e-05
6.68309e-05
6.66615e-05
6.64921e-05
6.63333e-05
6.61639e-05
6.6005e-05
6.58568e-05
6.57192e-05
6.55709e-05
6.54439e-05
6.53168e-05
6.52109e-05
6.50839e-05
6.4978e-05
6.49039e-05
6.4798e-05
6.47027e-05
6.46392e-05
6.45545e-05
6.45016e-05
6.44592e-05
6.44592e-05
6.4438e-05
6.44169e-05
6.44063e-05
6.44274e-05
6.44592e-05
6.44698e-05
6.4491e-05
6.45545e-05
6.46392e-05
6.47027e-05
6.47663e-05
6.48721e-05
6.4978e-05
6.50839e-05
6.52109e-05
6.53168e-05
6.54545e-05
6.55921e-05
6.57086e-05
6.58674e-05
6.6005e-05
6.61744e-05
6.63333e-05
6.65027e-05
6.66509e-05
6.68309e-05
6.70109e-05
6.71909e-05
6.73497e-05
6.75191e-05
6.76779e-05
6.78473e-05
6.7985e-05
6.81438e-05
6.8292e-05
6.84403e-05
6.85779e-05
6.8705e-05
6.8832e-05
6.89591e-05
6.90649e-05
6.91814e-05
6.92767e-05
6.93402e-05
6.94249e-05
6.94991e-05
6.95626e-05
6.96367e-05
6.9679e-05
6.97002e-05
6.97214e-05
6.9732e-05
7.39777e-05
7.39566e-05
7.39354e-05
7.39036e-05
7.38507e-05
7.37872e-05
7.37236e-05
7.36389e-05
7.3586e-05
7.34907e-05
7.33848e-05
7.32895e-05
7.31413e-05
7.30142e-05
7.28766e-05
7.27178e-05
7.25801e-05
7.24107e-05
7.22519e-05
7.21037e-05
7.19449e-05
7.17543e-05
7.15637e-05
7.14155e-05
7.12249e-05
7.10343e-05
7.08755e-05
7.07061e-05
7.05367e-05
7.03567e-05
7.01979e-05
7.00073e-05
6.98802e-05
6.9732e-05
6.95626e-05
6.94144e-05
6.92767e-05
6.91602e-05
6.90438e-05
6.89273e-05
6.8832e-05
6.87473e-05
6.8652e-05
6.85673e-05
6.84932e-05
6.84509e-05
6.84191e-05
6.83767e-05
6.83661e-05
6.83238e-05
6.83344e-05
6.83344e-05
6.83873e-05
6.84085e-05
6.84403e-05
6.84932e-05
6.85567e-05
6.86308e-05
6.87155e-05
6.88214e-05
6.89273e-05
6.90544e-05
6.91814e-05
6.93085e-05
6.94461e-05
6.95838e-05
6.9732e-05
6.98802e-05
7.00179e-05
7.02084e-05
7.03673e-05
7.05367e-05
7.07273e-05
7.09178e-05
7.10872e-05
7.12884e-05
7.14366e-05
7.16272e-05
7.17966e-05
7.19766e-05
7.21354e-05
7.23048e-05
7.24425e-05
7.26225e-05
7.27601e-05
7.28872e-05
7.30248e-05
7.31625e-05
7.32895e-05
7.33954e-05
7.34907e-05
7.35754e-05
7.36707e-05
7.37342e-05
7.38083e-05
7.38613e-05
7.39036e-05
7.3946e-05
7.39566e-05
7.39672e-05
7.79164e-05
7.78953e-05
7.78635e-05
7.78317e-05
7.77894e-05
7.77364e-05
7.76729e-05
7.75882e-05
7.74929e-05
7.73976e-05
7.72812e-05
7.71647e-05
7.70271e-05
7.69e-05
7.67518e-05
7.66035e-05
7.64553e-05
7.62859e-05
7.61059e-05
7.59259e-05
7.57565e-05
7.55765e-05
7.54071e-05
7.52165e-05
7.50259e-05
7.48565e-05
7.46448e-05
7.44648e-05
7.42954e-05
7.40836e-05
7.3946e-05
7.37766e-05
7.36283e-05
7.34378e-05
7.32895e-05
7.31413e-05
7.29719e-05
7.28342e-05
7.27284e-05
7.25907e-05
7.24743e-05
7.24001e-05
7.23154e-05
7.22096e-05
7.21672e-05
7.21037e-05
7.20507e-05
7.2019e-05
7.19872e-05
7.19766e-05
7.19872e-05
7.19978e-05
7.2019e-05
7.20507e-05
7.21143e-05
7.21672e-05
7.22096e-05
7.22943e-05
7.23896e-05
7.24848e-05
7.26013e-05
7.27284e-05
7.28342e-05
7.29825e-05
7.31307e-05
7.32789e-05
7.34378e-05
7.35966e-05
7.37872e-05
7.39566e-05
7.41366e-05
7.42954e-05
7.4486e-05
7.46871e-05
7.48883e-05
7.50683e-05
7.52589e-05
7.54283e-05
7.56295e-05
7.58094e-05
7.59789e-05
7.61483e-05
7.63177e-05
7.64765e-05
7.66459e-05
7.68047e-05
7.69529e-05
7.70694e-05
7.71859e-05
7.73023e-05
7.74082e-05
7.75035e-05
7.75882e-05
7.76729e-05
7.7747e-05
7.78106e-05
7.78529e-05
7.78953e-05
7.79164e-05
7.79059e-05
8.15269e-05
8.15269e-05
8.14846e-05
8.14528e-05
8.14422e-05
8.13681e-05
8.12834e-05
8.12199e-05
8.1114e-05
8.10187e-05
8.09128e-05
8.07646e-05
8.06269e-05
8.04999e-05
8.03411e-05
8.02034e-05
8.0034e-05
7.98646e-05
7.96846e-05
7.9494e-05
7.93035e-05
7.91235e-05
7.89329e-05
7.87211e-05
7.852e-05
7.834e-05
7.81494e-05
7.79482e-05
7.7747e-05
7.75565e-05
7.7387e-05
7.72282e-05
7.70165e-05
7.68577e-05
7.66988e-05
7.654e-05
7.63918e-05
7.62541e-05
7.61165e-05
7.59894e-05
7.5873e-05
7.57671e-05
7.56824e-05
7.56189e-05
7.55342e-05
7.54812e-05
7.54177e-05
7.53859e-05
7.5333e-05
7.53542e-05
7.53542e-05
7.53542e-05
7.53753e-05
7.54389e-05
7.54812e-05
7.55448e-05
7.56083e-05
7.56824e-05
7.57671e-05
7.58836e-05
7.59789e-05
7.60953e-05
7.6233e-05
7.63918e-05
7.654e-05
7.67094e-05
7.68682e-05
7.70588e-05
7.72388e-05
7.74294e-05
7.75988e-05
7.77682e-05
7.79482e-05
7.81494e-05
7.83611e-05
7.85517e-05
7.87529e-05
7.89541e-05
7.91446e-05
7.93352e-05
7.95364e-05
7.96952e-05
7.98752e-05
8.0034e-05
8.0214e-05
8.03834e-05
8.05105e-05
8.06587e-05
8.07964e-05
8.09128e-05
8.10399e-05
8.11458e-05
8.12305e-05
8.13152e-05
8.13787e-05
8.14422e-05
8.14846e-05
8.15057e-05
8.15481e-05
8.15587e-05
8.48409e-05
8.48303e-05
8.48198e-05
8.47774e-05
8.47033e-05
8.46609e-05
8.45974e-05
8.45021e-05
8.4428e-05
8.43221e-05
8.41845e-05
8.40892e-05
8.39304e-05
8.3761e-05
8.36127e-05
8.34433e-05
8.32739e-05
8.31363e-05
8.29351e-05
8.27234e-05
8.25328e-05
8.23316e-05
8.21304e-05
8.19293e-05
8.17281e-05
8.15269e-05
8.13046e-05
8.11034e-05
8.09128e-05
8.07328e-05
8.05211e-05
8.03411e-05
8.01823e-05
7.99917e-05
7.98223e-05
7.96423e-05
7.95152e-05
7.93352e-05
7.91976e-05
7.90705e-05
7.89541e-05
7.88376e-05
7.87529e-05
7.86682e-05
7.86047e-05
7.85305e-05
7.84564e-05
7.84353e-05
7.84141e-05
7.83929e-05
7.84035e-05
7.84247e-05
7.84458e-05
7.84776e-05
7.85411e-05
7.85941e-05
7.86788e-05
7.87529e-05
7.88376e-05
7.89541e-05
7.90705e-05
7.92082e-05
7.9367e-05
7.94835e-05
7.96634e-05
7.98223e-05
8.00023e-05
8.01717e-05
8.03517e-05
8.05317e-05
8.07434e-05
8.09552e-05
8.11458e-05
8.13363e-05
8.15269e-05
8.17175e-05
8.19293e-05
8.2141e-05
8.23316e-05
8.25222e-05
8.27234e-05
8.29139e-05
8.31151e-05
8.32845e-05
8.34645e-05
8.36127e-05
8.37716e-05
8.39198e-05
8.40574e-05
8.42057e-05
8.43327e-05
8.44386e-05
8.45233e-05
8.46186e-05
8.46927e-05
8.47456e-05
8.47986e-05
8.48198e-05
8.48515e-05
8.48833e-05
8.78479e-05
8.78267e-05
8.7795e-05
8.7742e-05
8.76891e-05
8.76256e-05
8.75726e-05
8.74985e-05
8.73926e-05
8.72656e-05
8.71597e-05
8.70115e-05
8.68844e-05
8.67256e-05
8.65668e-05
8.63656e-05
8.61962e-05
8.60268e-05
8.58574e-05
8.56456e-05
8.54339e-05
8.52221e-05
8.50103e-05
8.48198e-05
8.46186e-05
8.44068e-05
8.41845e-05
8.39727e-05
8.37504e-05
8.35492e-05
8.33692e-05
8.31786e-05
8.29881e-05
8.27975e-05
8.26175e-05
8.24587e-05
8.22893e-05
8.2141e-05
8.20034e-05
8.18763e-05
8.17387e-05
8.16328e-05
8.15057e-05
8.14316e-05
8.13469e-05
8.1294e-05
8.12622e-05
8.12093e-05
8.11881e-05
8.11775e-05
8.11669e-05
8.11881e-05
8.12199e-05
8.12516e-05
8.1294e-05
8.13575e-05
8.14316e-05
8.15269e-05
8.1654e-05
8.17493e-05
8.18763e-05
8.2014e-05
8.21516e-05
8.22998e-05
8.24692e-05
8.26598e-05
8.28186e-05
8.29881e-05
8.31786e-05
8.33798e-05
8.35704e-05
8.37716e-05
8.39939e-05
8.41951e-05
8.44068e-05
8.4608e-05
8.48198e-05
8.50209e-05
8.52327e-05
8.54233e-05
8.56139e-05
8.58362e-05
8.60268e-05
8.62174e-05
8.63762e-05
8.65562e-05
8.67256e-05
8.68738e-05
8.70115e-05
8.71597e-05
8.72762e-05
8.73926e-05
8.75197e-05
8.76044e-05
8.76573e-05
8.77314e-05
8.77738e-05
8.78267e-05
8.78373e-05
8.78691e-05
9.04631e-05
9.04419e-05
9.04314e-05
9.03996e-05
9.03467e-05
9.02619e-05
9.01878e-05
9.0082e-05
8.99973e-05
8.98808e-05
8.97537e-05
8.96267e-05
8.9489e-05
8.93196e-05
8.91502e-05
8.89596e-05
8.87691e-05
8.85891e-05
8.84091e-05
8.82185e-05
8.79961e-05
8.77844e-05
8.75726e-05
8.73609e-05
8.71385e-05
8.69268e-05
8.67256e-05
8.65032e-05
8.62809e-05
8.60691e-05
8.5868e-05
8.56456e-05
8.5455e-05
8.5275e-05
8.5095e-05
8.49256e-05
8.47562e-05
8.4608e-05
8.44492e-05
8.43221e-05
8.42057e-05
8.40892e-05
8.39727e-05
8.38774e-05
8.38139e-05
8.37292e-05
8.36763e-05
8.36551e-05
8.36339e-05
8.36127e-05
8.36022e-05
8.36127e-05
8.36551e-05
8.36974e-05
8.3761e-05
8.38139e-05
8.38986e-05
8.39939e-05
8.40892e-05
8.42057e-05
8.43645e-05
8.44809e-05
8.4608e-05
8.4788e-05
8.49256e-05
8.51162e-05
8.53068e-05
8.54974e-05
8.5688e-05
8.58891e-05
8.60903e-05
8.63232e-05
8.65032e-05
8.6715e-05
8.69479e-05
8.71597e-05
8.73609e-05
8.75726e-05
8.77844e-05
8.80067e-05
8.82079e-05
8.84091e-05
8.86102e-05
8.87902e-05
8.89914e-05
8.91502e-05
8.93196e-05
8.94679e-05
8.96267e-05
8.97643e-05
8.9902e-05
9.00184e-05
9.01137e-05
9.01984e-05
9.02937e-05
9.03467e-05
9.04102e-05
9.04737e-05
9.04949e-05
9.04631e-05
9.27289e-05
9.27289e-05
9.26972e-05
9.2676e-05
9.26231e-05
9.25489e-05
9.24431e-05
9.23689e-05
9.22419e-05
9.2136e-05
9.19984e-05
9.18607e-05
9.17337e-05
9.15643e-05
9.13737e-05
9.12254e-05
9.10243e-05
9.08231e-05
9.06113e-05
9.04419e-05
9.0209e-05
8.99973e-05
8.97749e-05
8.95526e-05
8.93302e-05
8.90973e-05
8.88855e-05
8.86738e-05
8.84514e-05
8.82291e-05
8.80279e-05
8.78161e-05
8.76044e-05
8.74244e-05
8.72232e-05
8.70644e-05
8.69056e-05
8.67362e-05
8.65879e-05
8.64503e-05
8.63232e-05
8.62068e-05
8.61009e-05
8.60056e-05
8.59209e-05
8.5868e-05
8.5815e-05
8.57515e-05
8.57409e-05
8.57197e-05
8.57303e-05
8.57515e-05
8.57727e-05
8.58044e-05
8.58574e-05
8.59421e-05
8.60162e-05
8.61221e-05
8.6228e-05
8.63444e-05
8.64503e-05
8.66091e-05
8.67679e-05
8.69056e-05
8.70856e-05
8.7255e-05
8.74562e-05
8.76467e-05
8.78585e-05
8.80491e-05
8.8282e-05
8.84726e-05
8.86949e-05
8.89067e-05
8.91185e-05
8.9362e-05
8.95843e-05
8.97961e-05
8.99973e-05
9.02302e-05
9.04419e-05
9.06325e-05
9.08231e-05
9.10349e-05
9.12254e-05
9.14266e-05
9.1596e-05
9.17548e-05
9.19031e-05
9.20407e-05
9.21678e-05
9.22842e-05
9.23795e-05
9.24748e-05
9.25595e-05
9.26442e-05
9.26972e-05
9.27183e-05
9.27395e-05
9.27713e-05
9.46453e-05
9.46242e-05
9.45924e-05
9.45501e-05
9.45077e-05
9.44442e-05
9.43489e-05
9.42854e-05
9.41689e-05
9.40418e-05
9.39042e-05
9.3756e-05
9.35866e-05
9.34277e-05
9.32583e-05
9.30783e-05
9.28983e-05
9.26866e-05
9.25066e-05
9.22842e-05
9.20725e-05
9.18713e-05
9.16384e-05
9.13949e-05
9.11725e-05
9.09502e-05
9.07172e-05
9.04843e-05
9.02725e-05
9.0082e-05
8.98173e-05
8.96055e-05
8.94149e-05
8.92243e-05
8.90338e-05
8.88432e-05
8.86738e-05
8.85255e-05
8.83455e-05
8.82079e-05
8.8102e-05
8.79644e-05
8.79008e-05
8.78056e-05
8.77103e-05
8.76256e-05
8.75832e-05
8.75409e-05
8.75091e-05
8.74985e-05
8.74985e-05
8.75091e-05
8.75409e-05
8.75832e-05
8.76361e-05
8.76997e-05
8.7795e-05
8.79114e-05
8.79961e-05
8.81232e-05
8.82608e-05
8.83879e-05
8.85573e-05
8.87267e-05
8.88961e-05
8.90549e-05
8.92561e-05
8.94361e-05
8.96373e-05
8.98596e-05
9.00714e-05
9.02831e-05
9.05055e-05
9.0749e-05
9.09713e-05
9.11831e-05
9.14054e-05
9.16384e-05
9.18713e-05
9.20725e-05
9.22948e-05
9.25066e-05
9.26972e-05
9.29089e-05
9.30995e-05
9.32901e-05
9.34489e-05
9.36183e-05
9.37877e-05
9.3936e-05
9.40524e-05
9.41689e-05
9.42854e-05
9.43912e-05
9.44865e-05
9.45395e-05
9.45924e-05
9.46242e-05
9.46559e-05
9.46877e-05
9.61912e-05
9.61594e-05
9.61171e-05
9.60853e-05
9.60429e-05
9.599e-05
9.59053e-05
9.57994e-05
9.5683e-05
9.55559e-05
9.54288e-05
9.52912e-05
9.51218e-05
9.49524e-05
9.47618e-05
9.45924e-05
9.44018e-05
9.41901e-05
9.39889e-05
9.37771e-05
9.3576e-05
9.33536e-05
9.31207e-05
9.28772e-05
9.26442e-05
9.24219e-05
9.21889e-05
9.1956e-05
9.17337e-05
9.15113e-05
9.1289e-05
9.10878e-05
9.08866e-05
9.06643e-05
9.04843e-05
9.02937e-05
9.01243e-05
8.99443e-05
8.97855e-05
8.96267e-05
8.94996e-05
8.93937e-05
8.92879e-05
8.92032e-05
8.91396e-05
8.90549e-05
8.89914e-05
8.8949e-05
8.89279e-05
8.89173e-05
8.89279e-05
8.89385e-05
8.89702e-05
8.90338e-05
8.90655e-05
8.9129e-05
8.92243e-05
8.9309e-05
8.94573e-05
8.95737e-05
8.97114e-05
8.9849e-05
8.99973e-05
9.01878e-05
9.03361e-05
9.05161e-05
9.06961e-05
9.08972e-05
9.10984e-05
9.13102e-05
9.15219e-05
9.17443e-05
9.19772e-05
9.22101e-05
9.24325e-05
9.26866e-05
9.29089e-05
9.31419e-05
9.33748e-05
9.35971e-05
9.38089e-05
9.40101e-05
9.4243e-05
9.44442e-05
9.4603e-05
9.48042e-05
9.49736e-05
9.51747e-05
9.53018e-05
9.54606e-05
9.55983e-05
9.57253e-05
9.58524e-05
9.59371e-05
9.60218e-05
9.60959e-05
9.61382e-05
9.61806e-05
9.62018e-05
9.62335e-05
9.73558e-05
9.73453e-05
9.72923e-05
9.72606e-05
9.7197e-05
9.71335e-05
9.70594e-05
9.69535e-05
9.68476e-05
9.671e-05
9.65829e-05
9.64241e-05
9.62547e-05
9.60959e-05
9.59053e-05
9.57253e-05
9.55347e-05
9.53336e-05
9.51218e-05
9.48995e-05
9.47195e-05
9.44865e-05
9.42536e-05
9.40312e-05
9.37877e-05
9.35548e-05
9.33113e-05
9.30995e-05
9.2856e-05
9.26231e-05
9.24007e-05
9.21889e-05
9.19772e-05
9.1776e-05
9.15748e-05
9.13949e-05
9.12043e-05
9.10455e-05
9.09078e-05
9.0749e-05
9.06113e-05
9.04737e-05
9.0389e-05
9.02937e-05
9.01984e-05
9.01561e-05
9.0082e-05
9.00502e-05
8.99973e-05
8.99867e-05
8.99867e-05
8.99973e-05
9.00078e-05
9.00714e-05
9.01137e-05
9.01878e-05
9.02831e-05
9.0389e-05
9.04949e-05
9.06219e-05
9.0749e-05
9.09184e-05
9.10772e-05
9.12254e-05
9.14054e-05
9.16172e-05
9.18078e-05
9.2009e-05
9.22101e-05
9.24219e-05
9.26442e-05
9.28772e-05
9.30889e-05
9.33219e-05
9.35654e-05
9.37877e-05
9.40312e-05
9.42748e-05
9.44971e-05
9.47406e-05
9.49524e-05
9.51747e-05
9.53441e-05
9.55665e-05
9.57783e-05
9.59265e-05
9.61382e-05
9.62971e-05
9.64559e-05
9.66041e-05
9.67629e-05
9.689e-05
9.69853e-05
9.70912e-05
9.71759e-05
9.72394e-05
9.73029e-05
9.73453e-05
9.73876e-05
9.73664e-05
9.81394e-05
9.81288e-05
9.8097e-05
9.80547e-05
9.79805e-05
9.78958e-05
9.78005e-05
9.77158e-05
9.75782e-05
9.74511e-05
9.73241e-05
9.71653e-05
9.7017e-05
9.68476e-05
9.66994e-05
9.64876e-05
9.62971e-05
9.61065e-05
9.58841e-05
9.56724e-05
9.545e-05
9.52171e-05
9.49947e-05
9.47618e-05
9.45289e-05
9.42959e-05
9.40524e-05
9.38301e-05
9.35971e-05
9.33748e-05
9.31313e-05
9.29195e-05
9.27078e-05
9.2496e-05
9.23054e-05
9.21148e-05
9.19348e-05
9.17654e-05
9.16278e-05
9.14796e-05
9.13207e-05
9.12149e-05
9.10984e-05
9.09819e-05
9.09078e-05
9.08443e-05
9.07808e-05
9.07702e-05
9.07384e-05
9.06961e-05
9.07172e-05
9.07172e-05
9.0749e-05
9.07808e-05
9.08337e-05
9.09184e-05
9.10031e-05
9.10878e-05
9.11937e-05
9.13207e-05
9.1469e-05
9.16172e-05
9.17866e-05
9.19666e-05
9.2136e-05
9.23266e-05
9.25172e-05
9.27501e-05
9.29619e-05
9.31524e-05
9.33748e-05
9.36183e-05
9.38618e-05
9.4063e-05
9.43065e-05
9.45289e-05
9.47724e-05
9.50159e-05
9.52489e-05
9.54712e-05
9.56935e-05
9.59159e-05
9.61382e-05
9.62971e-05
9.64982e-05
9.66888e-05
9.68688e-05
9.70488e-05
9.72394e-05
9.73876e-05
9.75041e-05
9.76629e-05
9.77476e-05
9.78747e-05
9.79488e-05
9.80229e-05
9.8097e-05
9.81394e-05
9.81711e-05
9.81605e-05
9.85205e-05
9.85099e-05
9.84993e-05
9.84252e-05
9.83617e-05
9.82876e-05
9.82029e-05
9.80864e-05
9.79699e-05
9.78747e-05
9.77264e-05
9.75782e-05
9.74194e-05
9.72606e-05
9.70912e-05
9.68794e-05
9.66994e-05
9.64982e-05
9.62971e-05
9.60535e-05
9.58206e-05
9.55983e-05
9.53759e-05
9.5143e-05
9.491e-05
9.46665e-05
9.44442e-05
9.41795e-05
9.39677e-05
9.37242e-05
9.35124e-05
9.32901e-05
9.30677e-05
9.2856e-05
9.2676e-05
9.2496e-05
9.23054e-05
9.21572e-05
9.19878e-05
9.18501e-05
9.17125e-05
9.15854e-05
9.14478e-05
9.13525e-05
9.12784e-05
9.12149e-05
9.11831e-05
9.11196e-05
9.10772e-05
9.10666e-05
9.10455e-05
9.10666e-05
9.1109e-05
9.11302e-05
9.12149e-05
9.1289e-05
9.13737e-05
9.1469e-05
9.15854e-05
9.17019e-05
9.1829e-05
9.19984e-05
9.21466e-05