/*--------------------------------*- C++ -*----------------------------------*\
  =========                 |
  \\      /  F ield         | OpenFOAM: The Open Source CFD Toolbox
   \\    /   O peration     | Website:  https://openfoam.org
    \\  /    A nd           | Version:  7
     \\/     M anipulation  |
\*---------------------------------------------------------------------------*/
FoamFile
{
    version     2.0;
    format      ascii;
    class       volScalarField;
    location    "0.041";
    object      gradTx;
}
// * * * * * * * * * * * * * * * * * * * * * * * * * * * * * * * * * * * * * //

dimensions      [0 -1 0 1 0 0 0];

internalField   nonuniform List<scalar> 
10000
(
3.66554e-05
0.000109818
0.000182589
0.000254576
0.000325568
0.000395257
0.000463348
0.000529607
0.000593707
0.000655476
0.000714642
0.000770948
0.000824163
0.000874085
0.000920534
0.000963352
0.0010023
0.00103727
0.00106812
0.00109476
0.00111701
0.00113487
0.00114823
0.00115706
0.00116131
0.00116096
0.00115602
0.00114654
0.00113257
0.00111413
0.00109127
0.00106417
0.00103288
0.000997551
0.000958312
0.000915325
0.000868728
0.000818774
0.000765601
0.000709432
0.000650479
0.000589006
0.000525235
0.00045942
0.000391816
0.000322688
0.00025231
0.000180947
0.000108897
3.64012e-05
-3.62212e-05
-0.000108727
-0.000180799
-0.000252183
-0.00032255
-0.000391689
-0.000459272
-0.000525086
-0.000588847
-0.00065031
-0.000709252
-0.000765421
-0.000818573
-0.000868569
-0.000915145
-0.000958132
-0.000997392
-0.00103276
-0.00106403
-0.00109115
-0.00111396
-0.00113244
-0.00114643
-0.00115589
-0.00116084
-0.00116118
-0.00115693
-0.00114812
-0.00113479
-0.00111693
-0.00109464
-0.00106801
-0.00103718
-0.00100221
-0.000963256
-0.000920492
-0.000874032
-0.00082411
-0.000770885
-0.00071461
-0.000655476
-0.000593717
-0.000529576
-0.000463338
-0.000395236
-0.000325557
-0.000254576
-0.000182589
-0.00010985
-3.66554e-05
3.66448e-05
0.000109754
0.000182451
0.000254396
0.000325345
0.000394993
0.000463052
0.000529269
0.000593315
0.000655042
0.000714176
0.000770429
0.000823602
0.000873482
0.000919931
0.000962695
0.00100163
0.00103658
0.00106742
0.00109401
0.00111626
0.00113411
0.00114745
0.00115628
0.00116052
0.00116018
0.00115524
0.00114577
0.00113179
0.00111337
0.00109051
0.00106343
0.00103218
0.000996873
0.000957666
0.0009147
0.000868135
0.000818213
0.000765072
0.000708945
0.000650034
0.000588614
0.000524875
0.000459113
0.000391552
0.000322455
0.000252119
0.00018082
0.000108823
3.63907e-05
-3.62212e-05
-0.000108674
-0.000180662
-0.000251971
-0.000322338
-0.000391414
-0.000458954
-0.000524716
-0.000588455
-0.000649875
-0.000708765
-0.000764892
-0.000818011
-0.000867976
-0.000914531
-0.000957497
-0.000996693
-0.00103204
-0.0010633
-0.0010904
-0.00111322
-0.00113167
-0.00114564
-0.00115511
-0.00116003
-0.00116039
-0.00115616
-0.00114735
-0.00113401
-0.00111617
-0.00109391
-0.00106731
-0.00103648
-0.00100154
-0.000962611
-0.000919867
-0.000873471
-0.000823549
-0.000770376
-0.000714144
-0.000655032
-0.000593294
-0.000529216
-0.000463031
-0.000394982
-0.000325367
-0.000254417
-0.000182461
-0.000109744
-3.66342e-05
3.65601e-05
0.000109617
0.000182218
0.000254078
0.000324922
0.000394463
0.000462438
0.000528517
0.000592542
0.000654185
0.000713202
0.000769392
0.000822511
0.000872338
0.000918681
0.000961404
0.00100029
0.00103519
0.00106597
0.00109253
0.00111477
0.00113259
0.00114592
0.00115471
0.00115893
0.00115859
0.00115371
0.00114421
0.00113025
0.00111184
0.00108906
0.001062
0.00103078
0.000995486
0.000956353
0.000913451
0.000866949
0.00081708
0.000764024
0.000707971
0.000649155
0.000587799
0.000524155
0.000458488
0.00039099
0.000322021
0.000251791
0.000180566
0.000108664
3.63271e-05
-3.61577e-05
-0.000108494
-0.000180439
-0.000251632
-0.000321883
-0.000390863
-0.00045833
-0.000524006
-0.00058764
-0.000648986
-0.000707791
-0.000763844
-0.00081691
-0.000866779
-0.000913271
-0.000956173
-0.000995338
-0.00103062
-0.00106187
-0.00108892
-0.0011117
-0.00113013
-0.0011441
-0.00115356
-0.00115847
-0.00115883
-0.00115459
-0.00114581
-0.00113247
-0.00111465
-0.00109245
-0.00106587
-0.00103508
-0.00100019
-0.000961329
-0.000918628
-0.000872285
-0.000822458
-0.000769339
-0.000713181
-0.000654174
-0.000592531
-0.000528506
-0.000462395
-0.000394442
-0.000324911
-0.000254099
-0.000182207
-0.000109617
-3.65918e-05
3.65177e-05
0.000109373
0.000181837
0.00025358
0.000324287
0.00039368
0.000461474
0.00052749
0.000591367
0.000652872
0.000711772
0.000767857
0.000820849
0.000870591
0.00091686
0.000959477
0.000998281
0.00103312
0.00106384
0.00109032
0.0011125
0.00113033
0.0011436
0.00115236
0.00115661
0.00115624
0.00115135
0.00114187
0.00112797
0.00110959
0.00108685
0.00105983
0.00102869
0.000993474
0.000954373
0.000911556
0.000865159
0.000815407
0.000762446
0.000706531
0.000647811
0.000586591
0.000523085
0.000457535
0.000390196
0.000321354
0.000251272
0.000180196
0.000108431
3.6253e-05
-3.6073e-05
-0.000108251
-0.000180069
-0.000251145
-0.000321237
-0.000390059
-0.000457387
-0.000522905
-0.000586433
-0.000647652
-0.000706362
-0.000762277
-0.000815227
-0.000865001
-0.000911397
-0.000954214
-0.000993326
-0.00102851
-0.00105969
-0.00108671
-0.00110943
-0.00112785
-0.00114179
-0.0011512
-0.00115613
-0.00115648
-0.00115224
-0.00114351
-0.0011302
-0.00111242
-0.00109022
-0.00106374
-0.00103301
-0.000998207
-0.000959402
-0.000916776
-0.000870538
-0.000820796
-0.000767814
-0.000711751
-0.00065284
-0.000591335
-0.000527479
-0.000461474
-0.000393669
-0.000324276
-0.00025357
-0.000181826
-0.000109394
-3.65071e-05
3.64012e-05
0.000109087
0.00018136
0.000252892
0.000323418
0.000392653
0.000460267
0.000526092
0.000589778
0.000651125
0.000709888
0.000765813
0.000818679
0.000868283
0.000914414
0.000956935
0.000995603
0.00103035
0.00106098
0.00108742
0.00110954
0.00112724
0.00114051
0.00114929
0.00115349
0.00115314
0.00114825
0.0011388
0.00112491
0.0011066
0.00108392
0.00105695
0.00102588
0.000990774
0.00095179
0.000909089
0.000862798
0.000813183
0.000760371
0.000704573
0.000646043
0.000585003
0.000521656
0.000456275
0.000389138
0.000320475
0.000250563
0.000179698
0.000108124
3.61789e-05
-3.59671e-05
-0.000107976
-0.000179582
-0.000250446
-0.000320348
-0.000389
-0.000456127
-0.000521476
-0.000584844
-0.000645873
-0.000704424
-0.000760191
-0.000813014
-0.00086265
-0.000908909
-0.000951631
-0.000990616
-0.00102574
-0.00105681
-0.00108377
-0.00110645
-0.00112476
-0.0011387
-0.00114812
-0.001153
-0.00115335
-0.00114917
-0.00114041
-0.00112715
-0.00110943
-0.00108732
-0.0010609
-0.00103026
-0.000995518
-0.000956851
-0.000914351
-0.000868198
-0.000818615
-0.000765771
-0.000709856
-0.000651104
-0.000589757
-0.000526071
-0.000460278
-0.000392621
-0.000323397
-0.000252882
-0.00018136
-0.000109119
-3.64224e-05
3.62954e-05
0.000108748
0.000180746
0.000252066
0.000322349
0.000391329
0.000458774
0.000524335
0.000587809
0.000648975
0.000707537
0.000763283
0.000815968
0.000865403
0.000911397
0.000953727
0.00099231
0.00102693
0.00105745
0.00108377
0.00110583
0.00112348
0.0011367
0.00114542
0.00114962
0.00114924
0.00114438
0.001135
0.00112112
0.00110286
0.00108025
0.00105339
0.00102241
0.000987429
0.00094856
0.000905997
0.000859887
0.000810431
0.000757766
0.000702169
0.000643862
0.000582981
0.000519856
0.000454751
0.000387803
0.000319384
0.000249716
0.000179073
0.000107764
3.60413e-05
-3.58295e-05
-0.000107594
-0.000178957
-0.000249589
-0.000319257
-0.000387666
-0.000454592
-0.000519739
-0.000582833
-0.00064365
-0.00070201
-0.000757618
-0.000810261
-0.000859728
-0.000905828
-0.000948402
-0.000987259
-0.00102227
-0.00105325
-0.00108014
-0.0011027
-0.00112097
-0.00113485
-0.00114425
-0.00114915
-0.00114948
-0.00114529
-0.0011366
-0.00112341
-0.00110572
-0.00108369
-0.00105735
-0.00102684
-0.000992236
-0.000953643
-0.000911302
-0.000865318
-0.000815926
-0.000763208
-0.000707484
-0.000648944
-0.00058782
-0.000524313
-0.000458753
-0.000391329
-0.000322338
-0.000252056
-0.000180746
-0.000108759
-3.62954e-05
3.61471e-05
0.000108325
0.000180037
0.00025105
0.0003211
0.000389794
0.000456932
0.000522281
0.00058549
0.000646403
0.000704721
0.000760265
0.000812749
0.000861983
0.000907755
0.000949947
0.000988339
0.00102283
0.00105324
0.00107946
0.00110142
0.00111899
0.00113214
0.00114082
0.001145
0.00114465
0.00113979
0.00113044
0.00111661
0.00109841
0.00107588
0.00104915
0.00101827
0.000983426
0.000944717
0.000902334
0.000856393
0.000807106
0.000754717
0.000699332
0.000641215
0.00058062
0.000517738
0.000452887
0.000386226
0.000318071
0.00024871
0.000178375
0.00010734
3.58824e-05
-3.57236e-05
-0.00010716
-0.000178216
-0.000248541
-0.000317966
-0.000386099
-0.000452729
-0.000517611
-0.000580451
-0.000641056
-0.000699162
-0.000754537
-0.000806958
-0.000856234
-0.000902175
-0.000944548
-0.000983257
-0.00101814
-0.00104903
-0.00107575
-0.00109826
-0.00111647
-0.00113028
-0.00113965
-0.00114452
-0.00114487
-0.00114071
-0.00113205
-0.0011189
-0.00110132
-0.00107934
-0.00105315
-0.00102276
-0.000988265
-0.000949873
-0.000907681
-0.000861877
-0.000812675
-0.000760201
-0.0007047
-0.00064636
-0.00058548
-0.00052227
-0.000456921
-0.000389783
-0.000321057
-0.000251061
-0.000180047
-0.000108325
-3.61683e-05
3.60095e-05
0.000107817
0.000179222
0.000249917
0.000319596
0.000388015
0.000454857
0.000519866
0.000582801
0.000643438
0.000701492
0.00075676
0.000808991
0.000857981
0.000903572
0.000945564
0.000983776
0.00101811
0.00104836
0.00107446
0.0010963
0.00111381
0.00112688
0.00113552
0.00113966
0.0011393
0.00113447
0.00112515
0.0011114
0.00109325
0.00107084
0.00104421
0.0010135
0.0009788
0.000940281
0.000898077
0.000852348
0.000803294
0.000751159
0.000696018
0.000638197
0.000577867
0.000515303
0.000450727
0.000384405
0.000316568
0.000247545
0.000177517
0.000106832
3.57024e-05
-3.55436e-05
-0.000106663
-0.000177379
-0.000247387
-0.00031642
-0.000384267
-0.00045059
-0.000515155
-0.000577708
-0.000638028
-0.000695859
-0.000750969
-0.000803146
-0.000852221
-0.000897897
-0.000940122
-0.000978662
-0.00101335
-0.00104408
-0.00107071
-0.00109315
-0.00111123
-0.00112499
-0.00113434
-0.0011392
-0.00113952
-0.00113538
-0.00112681
-0.0011137
-0.00109618
-0.00107436
-0.00104828
-0.00101801
-0.000983702
-0.00094549
-0.000903509
-0.000857917
-0.000808916
-0.000756718
-0.00070147
-0.000643385
-0.00058278
-0.000519845
-0.000454846
-0.000388005
-0.000319586
-0.000249906
-0.000179211
-0.000107838
-3.59777e-05
3.58189e-05
0.000107266
0.000178258
0.000248636
0.000317923
0.000385972
0.000452474
0.000517145
0.000579773
0.000640092
0.000697828
0.00075279
0.000804755
0.000853481
0.000898818
0.000940609
0.000978609
0.00101275
0.00104284
0.00106881
0.00109053
0.00110792
0.00112093
0.00112951
0.00113363
0.00113328
0.00112844
0.00111916
0.00110549
0.00108744
0.00106511
0.00103862
0.00100809
0.00097358
0.000935262
0.000893281
0.000847764
0.000798996
0.000747115
0.00069228
0.000634756
0.000574765
0.000512508
0.000448292
0.000382329
0.000314884
0.000246211
0.000176575
0.000106239
3.55013e-05
-3.53319e-05
-0.00010608
-0.000176416
-0.000246052
-0.000314747
-0.000382181
-0.000448155
-0.000512381
-0.000574595
-0.000634586
-0.000692132
-0.000746935
-0.000798826
-0.000847647
-0.000893133
-0.000935093
-0.00097341
-0.00100795
-0.0010385
-0.001065
-0.0010873
-0.00110533
-0.00111903
-0.00112831
-0.00113316
-0.00113348
-0.00112938
-0.00112082
-0.00110781
-0.00109043
-0.00106871
-0.00104274
-0.00101264
-0.000978535
-0.000940545
-0.000898755
-0.000853417
-0.000804713
-0.000752758
-0.000697775
-0.000640029
-0.000579762
-0.000517124
-0.000452453
-0.000385961
-0.000317934
-0.000248604
-0.000178311
-0.000107277
-3.58083e-05
3.55966e-05
0.00010662
0.000177252
0.000247175
0.00031607
0.000383717
0.000449817
0.000514128
0.000576385
0.000636355
0.000693752
0.000748364
0.000800044
0.000848483
0.000893556
0.000935071
0.00097286
0.00100679
0.00103672
0.00106251
0.00108408
0.00110139
0.00111432
0.00112285
0.00112689
0.00112653
0.00112175
0.00111252
0.0010989
0.00108097
0.00105878
0.00103241
0.00100206
0.000967756
0.00092965
0.000887892
0.000842702
0.000794199
0.000742626
0.00068813
0.000630934
0.000571292
0.000509427
0.000445603
0.000380021
0.000312979
0.000244718
0.000175526
0.000105614
3.53001e-05
-3.51307e-05
-0.000105445
-0.000175357
-0.00024456
-0.00031282
-0.000379884
-0.000445465
-0.000509289
-0.000571154
-0.000630775
-0.000687971
-0.000742456
-0.00079403
-0.000842565
-0.000887786
-0.000929502
-0.000967587
-0.00100193
-0.00103229
-0.00105862
-0.00108084
-0.00109876
-0.00111238
-0.00112161
-0.00112642
-0.00112679
-0.00112269
-0.0011142
-0.00110126
-0.00108399
-0.0010624
-0.00103662
-0.00100671
-0.000972764
-0.000934997
-0.000893493
-0.000848409
-0.000799991
-0.000748332
-0.000693699
-0.000636302
-0.000576353
-0.000514117
-0.000449838
-0.000383727
-0.00031607
-0.000247154
-0.000177252
-0.000106652
-3.55754e-05
3.53636e-05
0.000105943
0.000176109
0.000245555
0.000314037
0.00038125
0.000446916
0.000510846
0.000572668
0.000632247
0.000689262
0.000743547
0.000794877
0.000842988
0.000887743
0.000929015
0.000966549
0.00100027
0.00102997
0.00105557
0.00107706
0.00109421
0.00110703
0.00111548
0.00111953
0.00111916
0.00111439
0.00110519
0.00109168
0.00107386
0.0010518
0.00102564
0.000995465
0.000961361
0.000923499
0.000882026
0.000837112
0.000788948
0.000737692
0.000683545
0.000626741
0.000567523
0.000506039
0.000442638
0.000377523
0.000310893
0.000243098
0.000174341
0.000104926
3.50566e-05
-3.49083e-05
-0.000104746
-0.000174182
-0.000242929
-0.000310734
-0.000377332
-0.000442511
-0.000505912
-0.000567353
-0.000626603
-0.000683407
-0.000737533
-0.000788799
-0.000836985
-0.000881888
-0.000923361
-0.000961192
-0.000995295
-0.0010255
-0.00105168
-0.0010737
-0.00109154
-0.00110507
-0.00111426
-0.00111905
-0.00111943
-0.00111536
-0.00110692
-0.00109408
-0.00107691
-0.0010555
-0.00102985
-0.00100018
-0.000966465
-0.00092892
-0.000887712
-0.000842946
-0.000794782
-0.000743494
-0.00068922
-0.000632183
-0.000572658
-0.000510824
-0.000446926
-0.00038125
-0.000314016
-0.000245576
-0.000176119
-0.000105953
-3.5353e-05
3.50989e-05
0.000105201
0.00017487
0.00024384
0.000311814
0.000378571
0.000443803
0.000507246
0.000568634
0.000627768
0.000684413
0.000738327
0.000789265
0.000837038
0.000881486
0.000922429
0.000959678
0.000993136
0.00102267
0.00104811
0.00106937
0.0010864
0.00109913
0.00110754
0.00111155
0.00111116
0.00110638
0.00109728
0.00108386
0.00106612
0.00104422
0.00101828
0.000988286
0.000954437
0.000916818
0.000875673
0.000831077
0.00078323
0.000732345
0.000678569
0.000622199
0.000563425
0.000502386
0.00043943
0.000374759
0.000308669
0.00024132
0.000173059
0.000104153
3.48131e-05
-3.46542e-05
-0.000103973
-0.000172932
-0.000241161
-0.000308479
-0.0003746
-0.000439271
-0.000502227
-0.000563235
-0.000622072
-0.000678463
-0.000732218
-0.000783082
-0.000830939
-0.000875514
-0.000916691
-0.000954278
-0.000988138
-0.00101811
-0.0010441
-0.00106599
-0.00108368
-0.00109716
-0.00110628
-0.00111105
-0.00111141
-0.00110741
-0.00109903
-0.00108629
-0.00106924
-0.00104799
-0.00102257
-0.000993072
-0.000959625
-0.000922355
-0.000881422
-0.000836953
-0.000789181
-0.000738232
-0.000684371
-0.000627715
-0.000568624
-0.000507225
-0.000443792
-0.000378571
-0.000311825
-0.00024385
-0.000174859
-0.000105212
-3.51095e-05
3.48554e-05
0.000104397
0.000173525
0.000241976
0.000309453
0.000375691
0.000440425
0.000503371
0.000564293
0.000623014
0.000679204
0.000732683
0.000783241
0.000830632
0.00087472
0.000915367
0.00095233
0.000985512
0.00101481
0.00104004
0.00106114
0.00107802
0.00109067
0.00109898
0.00110293
0.00110258
0.00109783
0.00108875
0.00107541
0.00105787
0.00103611
0.00101032
0.000980578
0.000946993
0.000909671
0.000868812
0.000824555
0.00077711
0.000726606
0.000673264
0.000617328
0.000558978
0.000498437
0.000435978
0.000371816
0.000306245
0.000239435
0.000171704
0.000103317
3.45484e-05
-3.43684e-05
-0.000103158
-0.000171556
-0.000239287
-0.000306044
-0.000371667
-0.00043583
-0.000498267
-0.00055883
-0.00061718
-0.000673137
-0.000726468
-0.000776973
-0.000824417
-0.000868664
-0.000909544
-0.000946845
-0.00098043
-0.00101018
-0.00103597
-0.00105769
-0.00107529
-0.00108864
-0.00109769
-0.00110245
-0.00110283
-0.00109886
-0.00109054
-0.00107793
-0.00106101
-0.00103992
-0.0010147
-0.000985449
-0.000952266
-0.000915283
-0.000874678
-0.000830548
-0.000783145
-0.00073262
-0.00067914
-0.00062295
-0.000564283
-0.000503339
-0.000440394
-0.000375691
-0.000309442
-0.000241997
-0.000173568
-0.000104407
-3.48342e-05
3.45484e-05
0.00010356
0.000172107
0.000240028
0.000306933
0.00037261
0.000436804
0.000499273
0.000559698
0.000617911
0.000673645
0.00072668
0.000776793
0.000823814
0.000867552
0.000907829
0.000944484
0.000977391
0.00100642
0.00103144
0.00105237
0.00106911
0.00108164
0.00108988
0.00109377
0.0010934
0.00108868
0.00107971
0.00106644
0.00104902
0.00102745
0.00100187
0.000972394
0.000939042
0.000902048
0.000861528
0.00081763
0.000770578
0.000720486
0.0006676
0.00061214
0.000554245
0.000494233
0.000432304
0.000368724
0.00030364
0.000237402
0.000170254
0.00010247
3.42625e-05
-3.40931e-05
-0.00010229
-0.000170116
-0.000237243
-0.000303471
-0.000368533
-0.000432146
-0.000494085
-0.000554108
-0.00061196
-0.000667462
-0.000720349
-0.000770419
-0.000817493
-0.000861401
-0.000901921
-0.000938904
-0.000972235
-0.00100173
-0.00102732
-0.00104887
-0.00106633
-0.00107958
-0.00108854
-0.00109328
-0.00109368
-0.00108973
-0.00108151
-0.00106899
-0.00105226
-0.00103133
-0.00100634
-0.000977317
-0.000944431
-0.000907755
-0.000867478
-0.00082375
-0.000776729
-0.000726617
-0.000673582
-0.000617836
-0.000559666
-0.000499231
-0.000436804
-0.00037261
-0.000306933
-0.000239996
-0.000172117
-0.00010355
-3.45589e-05
3.42413e-05
0.00010265
0.000170645
0.00023791
0.000304265
0.00036937
0.000433003
0.0004949
0.000554828
0.000612521
0.000667769
0.000720306
0.000769974
0.000816603
0.000859971
0.000899867
0.000936183
0.000968826
0.000997572
0.00102236
0.00104308
0.00105968
0.00107208
0.00108023
0.00108411
0.00108369
0.00107905
0.00107011
0.00105697
0.00103968
0.0010183
0.000992934
0.000963701
0.000930656
0.000893969
0.00085382
0.000810314
0.000763674
0.000714028
0.000661617
0.000606603
0.000549269
0.000489807
0.000428429
0.000365378
0.00030093
0.000235263
0.000168718
0.000101538
3.39554e-05
-3.37754e-05
-0.000101369
-0.000168581
-0.000235105
-0.00030075
-0.000365198
-0.00042827
-0.000489638
-0.000549121
-0.000606476
-0.000661459
-0.000713879
-0.000763494
-0.000810166
-0.000853693
-0.000893853
-0.000930519
-0.000963564
-0.000992807
-0.00101817
-0.00103956
-0.00105683
-0.00106997
-0.0010789
-0.00108359
-0.001084
-0.0010801
-0.00107195
-0.00105954
-0.00104297
-0.00102223
-0.000997487
-0.000968741
-0.00093612
-0.000899793
-0.000859887
-0.000816529
-0.000769942
-0.000720264
-0.000667695
-0.000612468
-0.000554775
-0.000494868
-0.000433003
-0.00036937
-0.000304233
-0.00023791
-0.000170614
-0.00010265
-3.42519e-05
3.39554e-05
0.000101718
0.000169057
0.000235729
0.000301459
0.000365961
0.000429001
0.000490326
0.000549703
0.000606825
0.000661575
0.000713636
0.000762838
0.000809033
0.000851978
0.000891513
0.00092748
0.000959784
0.000988286
0.00101283
0.00103334
0.00104976
0.00106204
0.0010701
0.00107393
0.00107352
0.00106888
0.00106003
0.00104703
0.00102985
0.00100869
0.000983564
0.000954564
0.000921837
0.000885509
0.000845731
0.000802606
0.0007564
0.000707262
0.000655307
0.000600853
0.000544049
0.000485128
0.000424342
0.000361884
0.000298039
0.00023304
0.000167141
0.000100553
3.36166e-05
-3.34578e-05
-0.000100405
-0.000166961
-0.00023286
-0.000297891
-0.000361715
-0.000424173
-0.000484979
-0.00054389
-0.000600684
-0.000655159
-0.000707082
-0.000756252
-0.00080249
-0.000845572
-0.000885382
-0.000921709
-0.000954447
-0.000983416
-0.00100856
-0.00102975
-0.00104689
-0.00105988
-0.00106874
-0.0010734
-0.0010738
-0.00106998
-0.00106193
-0.00104964
-0.00103322
-0.0010127
-0.00098818
-0.000959699
-0.000927406
-0.000891439
-0.000851882
-0.000808959
-0.000762806
-0.000713593
-0.000661543
-0.000606783
-0.00054965
-0.000490305
-0.00042898
-0.000365929
-0.000301459
-0.000235719
-0.000169036
-0.000101697
-3.39343e-05
3.3606e-05
0.000100723
0.000167416
0.000233453
0.000298516
0.000362403
0.000424819
0.000485562
0.000544325
0.000600928
0.000655116
0.000706658
0.000755395
0.000801134
0.000843613
0.000882767
0.000918395
0.00095036
0.000978556
0.00100287
0.00102317
0.00103942
0.00105157
0.00105953
0.0010633
0.00106288
0.00105827
0.00104951
0.00103661
0.00101964
0.000998673
0.000973749
0.000945035
0.000912636
0.000876658
0.00083726
0.000794591
0.000748841
0.000700168
0.000648721
0.000594818
0.000538596
0.000480247
0.000420054
0.000358253
0.000295032
0.000230689
0.000165457
9.95581e-05
3.32884e-05
-3.3119e-05
-9.93781e-05
-0.000165288
-0.00023052
-0.000294873
-0.000358094
-0.000419917
-0.000480098
-0.000538438
-0.000594659
-0.000648584
-0.000699988
-0.000748671
-0.000794432
-0.000837112
-0.00087652
-0.000912509
-0.000944929
-0.000973622
-0.000998525
-0.00101951
-0.00103647
-0.00104938
-0.00105817
-0.00106276
-0.00106317
-0.00105942
-0.00105144
-0.00103928
-0.00102305
-0.00100275
-0.000978461
-0.000950254
-0.000918332
-0.000882693
-0.00084355
-0.00080105
-0.000755352
-0.000706627
-0.000655064
-0.000600875
-0.000544272
-0.000485519
-0.00042484
-0.000362371
-0.000298516
-0.000233421
-0.000167395
-0.000100702
-3.3606e-05
3.32778e-05
9.97064e-05
0.000165711
0.000231039
0.000295487
0.000358708
0.000420488
0.000480596
0.000538766
0.000594776
0.000648414
0.000699427
0.000747665
0.000792908
0.000834963
0.000873693
0.000908951
0.000940577
0.000968466
0.0009925
0.00101261
0.00102867
0.00104069
0.00104855
0.00105226
0.00105185
0.00104726
0.00103859
0.0010258
0.00100902
0.000988233
0.000963574
0.000935156
0.000903085
0.000867468
0.000828483
0.000786248
0.000740974
0.000692778
0.000641913
0.00058855
0.0005329
0.000475196
0.000415639
0.000354462
0.00029194
0.000228254
0.00016371
9.84993e-05
3.29496e-05
-3.27696e-05
-9.83617e-05
-0.000163541
-0.000228074
-0.000291771
-0.000354335
-0.00041547
-0.000475027
-0.000532763
-0.000588391
-0.000641765
-0.000692629
-0.000740794
-0.000786089
-0.000828335
-0.000867319
-0.000902948
-0.000935029
-0.000963458
-0.000988106
-0.00100887
-0.00102567
-0.00103846
-0.00104714
-0.00105173
-0.00105216
-0.00104844
-0.00104056
-0.00102854
-0.00101247
-0.000992373
-0.00096837
-0.000940482
-0.000908866
-0.00087363
-0.000834889
-0.000792833
-0.000747612
-0.000699395
-0.00064834
-0.000594723
-0.000538713
-0.000480554
-0.000420488
-0.000358687
-0.000295477
-0.000231039
-0.000165669
-9.96852e-05
-3.32566e-05
3.2939e-05
9.86476e-05
0.000163922
0.000228582
0.000292322
0.000354896
0.00041601
0.000475471
0.000533027
0.000588413
0.000641479
0.000691973
0.000739672
0.000784416
0.000826016
0.000864334
0.000899178
0.000930466
0.000958037
0.000981796
0.00100167
0.00101756
0.00102944
0.00103721
0.00104087
0.00104045
0.00103589
0.0010273
0.00101465
0.000998027
0.000977465
0.00095305
0.000924928
0.000893186
0.000857981
0.00081942
0.00077764
0.000732832
0.000685186
0.000634862
0.000582102
0.000527034
0.000469966
0.000411076
0.000350566
0.000288711
0.000225734
0.0001619
9.74088e-05
3.25578e-05
-3.24096e-05
-9.725e-05
-0.00016173
-0.000225575
-0.000288552
-0.000350418
-0.000410885
-0.000469807
-0.000526897
-0.000581933
-0.000634724
-0.000685027
-0.000732652
-0.00077746
-0.00081925
-0.000857864
-0.000893059
-0.000924822
-0.000952923
-0.000977307
-0.000997879
-0.00101451
-0.00102718
-0.0010358
-0.00104033
-0.00104076
-0.00103709
-0.0010293
-0.00101746
-0.00100155
-0.00098169
-0.000957931
-0.00093037
-0.000899104
-0.000864259
-0.000825942
-0.000784342
-0.000739587
-0.000691888
-0.000641426
-0.000588381
-0.000532985
-0.000475418
-0.000415978
-0.000354886
-0.000292332
-0.000228582
-0.000163933
-9.86158e-05
-3.29072e-05
3.25367e-05
9.75464e-05
0.000162154
0.000226073
0.000289071
0.000350947
0.000411414
0.000470188
0.00052713
0.00058189
0.000634354
0.000684286
0.000731445
0.000775681
0.000816804
0.000854667
0.000889152
0.000920068
0.000947332
0.000970795
0.000990446
0.00100615
0.00101786
0.00102556
0.00102915
0.0010287
0.00102424
0.0010157
0.00100317
0.000986709
0.00096638
0.000942229
0.000914425
0.000883064
0.000848219
0.000810092
0.000768778
0.000724488
0.000677351
0.00062763
0.000575442
0.000521031
0.000464598
0.000406353
0.000346564
0.000285397
0.00022313
0.000160036
9.62971e-05
3.21978e-05
-3.2039e-05
-9.61488e-05
-0.000159867
-0.000222981
-0.000285238
-0.000346394
-0.000406195
-0.000464439
-0.000520872
-0.000575252
-0.000627471
-0.000677224
-0.000724308
-0.000768608
-0.000809922
-0.000848081
-0.000882926
-0.000914319
-0.000942102
-0.000966232
-0.000986571
-0.00100305
-0.00101557
-0.00102408
-0.00102862
-0.00102905
-0.00102542
-0.00101773
-0.00100602
-0.00099034
-0.00097071
-0.000947226
-0.000919994
-0.000889067
-0.000854582
-0.000816741
-0.000775596
-0.000731371
-0.000684201
-0.00063429
-0.000581848
-0.000527077
-0.000470177
-0.000411383
-0.000350926
-0.000289071
-0.000226073
-0.000162101
-9.75253e-05
-3.25472e-05
3.21661e-05
9.64241e-05
0.00016029
0.000223479
0.000285778
0.000346934
0.000406692
0.000464809
0.000521042
0.000575199
0.00062708
0.000676409
0.000723006
0.000766755
0.000807381
0.00084482
0.00087886
0.000909438
0.000936353
0.000959551
0.000978948
0.000994438
0.00100603
0.00101359
0.00101716
0.00101674
0.00101227
0.00100382
0.000991441
0.000975147
0.00095503
0.000931164
0.000903668
0.000872666
0.000838245
0.000800552
0.000759693
0.000715923
0.000669389
0.000620208
0.000568645
0.000514848
0.000459081
0.000401536
0.000342455
0.00028203
0.000220493
0.000158141
9.5143e-05
3.17955e-05
-3.16579e-05
-9.49736e-05
-0.000157972
-0.000220324
-0.000281861
-0.000342307
-0.000401356
-0.000458944
-0.000514689
-0.000568476
-0.00062006
-0.000669198
-0.000715753
-0.000759545
-0.000800383
-0.000838107
-0.000872518
-0.000903562
-0.000931048
-0.000954892
-0.000974998
-0.000991293
-0.0010037
-0.00101212
-0.0010166
-0.00101706
-0.00101346
-0.0010059
-0.000994343
-0.000978842
-0.000959477
-0.000936268
-0.000909343
-0.000878786
-0.000844714
-0.000807307
-0.000766671
-0.000722932
-0.000676335
-0.000626995
-0.000575146
-0.000521042
-0.000464799
-0.00040665
-0.000346892
-0.000285747
-0.000223468
-0.000160259
-9.64135e-05
-3.21661e-05
3.17955e-05
9.53018e-05
0.000158385
0.000220821
0.000282401
0.000342826
0.000401896
0.000459293
0.00051489
0.000568391
0.000619647
0.000668394
0.00071443
0.000757639
0.000797789
0.000834762
0.000868399
0.000898564
0.000925172
0.000948095
0.000967227
0.000982548
0.000993951
0.00100143
0.00100492
0.00100446
0.00100008
0.000991727
0.000979467
0.000963373
0.000943468
0.000919899
0.000892762
0.000862068
0.000828038
0.000790801
0.000750461
0.000707241
0.000661215
0.000612648
0.00056171
0.000508569
0.00045348
0.000396644
0.000338263
0.000278579
0.000217804
0.000156193
9.39889e-05
3.14355e-05
-3.12661e-05
-9.38195e-05
-0.000156045
-0.000217635
-0.000278399
-0.000338104
-0.000396486
-0.000453332
-0.0005084
-0.000561551
-0.00061249
-0.000661067
-0.000707029
-0.000750291
-0.000790673
-0.000827922
-0.000861941
-0.000892614
-0.000919751
-0.000943341
-0.000963235
-0.000979318
-0.00099159
-0.000999933
-0.00100436
-0.00100484
-0.0010013
-0.000993824
-0.000982431
-0.000967132
-0.000947999
-0.000925076
-0.000898511
-0.000868315
-0.000834666
-0.000797714
-0.000757555
-0.000714345
-0.000668288
-0.000619583
-0.00056837
-0.000514858
-0.000459261
-0.000401875
-0.000342815
-0.000282358
-0.000220811
-0.000158342
-9.527e-05
-3.18167e-05
3.14037e-05
9.41265e-05
0.000156468
0.000218143
0.000278991
0.000338676
0.000396994
0.000453724
0.000508622
0.000561488
0.000612087
0.000660262
0.000705716
0.000748375
0.000788048
0.000824565
0.000857748
0.000887563
0.000913832
0.000936448
0.000955358
0.000970467
0.00098169
0.00098908
0.000992532
0.000992066
0.000987683
0.000979424
0.000967333
0.000951419
0.000931757
0.000908443
0.000881634
0.000851342
0.000817715
0.000780943
0.000741101
0.000698368
0.000652925
0.000604983
0.000554669
0.000502206
0.000447826
0.000391668
0.000334017
0.000275063
0.000215051
0.000154224
9.28136e-05
3.10438e-05
-3.08532e-05
-9.26548e-05
-0.000154086
-0.000214903
-0.000274915
-0.000333858
-0.000391499
-0.000447615
-0.000502036
-0.0005545
-0.000604803
-0.000652777
-0.000698209
-0.000740942
-0.000780784
-0.000817588
-0.000851205
-0.000881497
-0.000908316
-0.00093162
-0.00095126
-0.000967163
-0.000979297
-0.000987577
-0.00099195
-0.000992416
-0.000988932
-0.000981584
-0.00097034
-0.000955263
-0.000936374
-0.000913726
-0.000887489
-0.000857695
-0.00082447
-0.000787963
-0.000748322
-0.000705653
-0.000660167
-0.000612034
-0.000561413
-0.00050859
-0.000453692
-0.000396983
-0.000338654
-0.000278949
-0.000218122
-0.000156436
-9.41159e-05
-3.14143e-05
3.1012e-05
9.29619e-05
0.000154531
0.000215443
0.000275508
0.00033444
0.00039206
0.000448091
0.000502301
0.000554489
0.000604464
0.000652004
0.000696928
0.000739057
0.00077819
0.000814221
0.000847044
0.000876446
0.000902355
0.000924695
0.000943351
0.000958227
0.000969345
0.000976587
0.000979975
0.000979498
0.0009752
0.000967015
0.000955051
0.000939317
0.00091992
0.000896902
0.000870379
0.000840479
0.000807286
0.000770969
0.000731614
0.000689432
0.000644592
0.000597211
0.000547564
0.000495779
0.000442077
0.000386639
0.000329729
0.000271527
0.000212288
0.000152244
9.16172e-05
3.0652e-05
-3.0472e-05
-9.14584e-05
-0.000152106
-0.00021215
-0.000271368
-0.00032957
-0.000386448
-0.000441865
-0.00049561
-0.000547384
-0.000597052
-0.000644423
-0.000689273
-0.000731455
-0.000770789
-0.000807159
-0.000840331
-0.000870273
-0.000896764
-0.000919751
-0.000939158
-0.000954892
-0.000966888
-0.000975073
-0.000979414
-0.000979879
-0.00097647
-0.000969207
-0.000958121
-0.000943235
-0.0009246
-0.000902259
-0.000876372
-0.000846938
-0.000814157
-0.000778159
-0.000738973
-0.000696865
-0.000651919
-0.000604379
-0.000554436
-0.000502269
-0.000448049
-0.000392028
-0.00033443
-0.000275497
-0.000215443
-0.000154478
-9.29301e-05
-3.1012e-05
3.06414e-05
9.17866e-05
0.000152529
0.000212732
0.000272014
0.000330226
0.000387115
0.000442395
0.000495917
0.000547469
0.000596777
0.000643713
0.000688066
0.000729645