/*--------------------------------*- C++ -*----------------------------------*\
  =========                 |
  \\      /  F ield         | OpenFOAM: The Open Source CFD Toolbox
   \\    /   O peration     | Website:  https://openfoam.org
    \\  /    A nd           | Version:  7
     \\/     M anipulation  |
\*---------------------------------------------------------------------------*/
FoamFile
{
    version     2.0;
    format      ascii;
    class       volScalarField;
    location    "0.041";
    object      gradTy;
}
// * * * * * * * * * * * * * * * * * * * * * * * * * * * * * * * * * * * * * //

dimensions      [0 -1 0 1 0 0 0];

internalField   nonuniform List<scalar> 
10000
(
3.66554e-05
3.6613e-05
3.65812e-05
3.65071e-05
3.64118e-05
3.62742e-05
3.6126e-05
3.59671e-05
3.57871e-05
3.55966e-05
3.53636e-05
3.51095e-05
3.48554e-05
3.45695e-05
3.42519e-05
3.39448e-05
3.35954e-05
3.32884e-05
3.29072e-05
3.25684e-05
3.21873e-05
3.18061e-05
3.14355e-05
3.10543e-05
3.06308e-05
3.02285e-05
2.98685e-05
2.94662e-05
2.90744e-05
2.86827e-05
2.83227e-05
2.79309e-05
2.75709e-05
2.72427e-05
2.68827e-05
2.65862e-05
2.62686e-05
2.59827e-05
2.56969e-05
2.54639e-05
2.52416e-05
2.50192e-05
2.48287e-05
2.46698e-05
2.45216e-05
2.43945e-05
2.42781e-05
2.42146e-05
2.4151e-05
2.41404e-05
2.41404e-05
2.41404e-05
2.4204e-05
2.42993e-05
2.43945e-05
2.45216e-05
2.46592e-05
2.48392e-05
2.50192e-05
2.5231e-05
2.54639e-05
2.5718e-05
2.59933e-05
2.62686e-05
2.65968e-05
2.68933e-05
2.72321e-05
2.75921e-05
2.79415e-05
2.83227e-05
2.87038e-05
2.90638e-05
2.94556e-05
2.98579e-05
3.02603e-05
3.06414e-05
3.10332e-05
3.14249e-05
3.18273e-05
3.21978e-05
3.25684e-05
3.29178e-05
3.32778e-05
3.36378e-05
3.39554e-05
3.42837e-05
3.45589e-05
3.48554e-05
3.51095e-05
3.53636e-05
3.5586e-05
3.57977e-05
3.60095e-05
3.61577e-05
3.63165e-05
3.64118e-05
3.65177e-05
3.65706e-05
3.66448e-05
3.66554e-05
0.000109828
0.000109754
0.000109617
0.000109394
0.000109108
0.000108738
0.000108325
0.000107827
0.000107234
0.000106641
0.000105953
0.000105212
0.000104407
0.00010355
0.00010265
0.000101707
0.000100702
9.97064e-05
9.8637e-05
9.75464e-05
9.64135e-05
9.52806e-05
9.41477e-05
9.29725e-05
9.17972e-05
9.06008e-05
8.94255e-05
8.82714e-05
8.70962e-05
8.59527e-05
8.48092e-05
8.37292e-05
8.26704e-05
8.16116e-05
8.06058e-05
7.96423e-05
7.87317e-05
7.78847e-05
7.70482e-05
7.62859e-05
7.55765e-05
7.49518e-05
7.43801e-05
7.38719e-05
7.34378e-05
7.30672e-05
7.27601e-05
7.25484e-05
7.24001e-05
7.23048e-05
7.23154e-05
7.23896e-05
7.25378e-05
7.27601e-05
7.30672e-05
7.34272e-05
7.39036e-05
7.43695e-05
7.49624e-05
7.55977e-05
7.62859e-05
7.70376e-05
7.78635e-05
7.87317e-05
7.96529e-05
8.05952e-05
8.16116e-05
8.26598e-05
8.37398e-05
8.48198e-05
8.59421e-05
8.70962e-05
8.82502e-05
8.94255e-05
9.05902e-05
9.1776e-05
9.29619e-05
9.41159e-05
9.527e-05
9.64135e-05
9.75464e-05
9.86264e-05
9.96958e-05
0.000100712
0.000101686
0.00010265
0.000103539
0.000104407
0.000105201
0.000105953
0.000106641
0.000107266
0.000107817
0.000108325
0.000108759
0.000109119
0.000109394
0.000109606
0.000109775
0.00010985
0.000182578
0.000182461
0.000182197
0.000181837
0.000181382
0.000180778
0.000180069
0.0001792
0.00017829
0.000177252
0.000176098
0.000174859
0.000173525
0.000172128
0.000170624
0.000169047
0.000167405
0.00016569
0.000163954
0.000162112
0.000160259
0.000158374
0.000156479
0.00015452
0.000152551
0.000150602
0.000148633
0.000146696
0.000144758
0.000142863
0.000140999
0.000139178
0.000137399
0.000135663
0.000134011
0.000132381
0.000130856
0.000129395
0.000128061
0.00012678
0.000125626
0.000124567
0.000123593
0.000122777
0.000122036
0.000121412
0.000120946
0.000120565
0.00012031
0.000120183
0.000120173
0.000120321
0.000120575
0.000120925
0.000121412
0.000122026
0.000122756
0.000123603
0.000124567
0.000125636
0.000126801
0.00012804
0.000129405
0.000130824
0.00013237
0.000133969
0.000135631
0.000137346
0.000139146
0.000140957
0.000142852
0.000144747
0.000146674
0.000148612
0.000150571
0.000152529
0.000154488
0.000156426
0.000158342
0.000160237
0.000162112
0.000163911
0.000165669
0.000167395
0.000169025
0.000170614
0.000172107
0.000173536
0.00017487
0.000176098
0.000177242
0.000178279
0.0001792
0.000180047
0.000180746
0.00018136
0.000181847
0.000182218
0.000182451
0.000182567
0.000254576
0.000254406
0.000254057
0.000253538
0.000252882
0.000252045
0.000251039
0.000249896
0.000248604
0.000247143
0.000245565
0.00024384
0.000241955
0.000239986
0.000237932
0.000235729
0.000233442
0.00023106
0.000228582
0.000226063
0.000223468
0.000220843
0.000218132
0.000215411
0.000212711
0.000209979
0.000207258
0.000204527
0.000201859
0.00019918
0.000196596
0.000194034
0.000191546
0.000189153
0.000186824
0.0001846
0.000182461
0.00018045
0.000178555
0.000176808
0.000175166
0.000173705
0.000172371
0.000171185
0.000170169
0.000169322
0.000168623
0.000168094
0.000167734
0.000167575
0.000167585
0.000167765
0.000168115
0.000168623
0.00016929
0.000170158
0.000171154
0.000172361
0.000173695
0.000175166
0.000176776
0.000178544
0.000180418
0.000182451
0.000184558
0.000186813
0.000189111
0.000191514
0.000193992
0.000196565
0.000199159
0.000201827
0.000204527
0.000207227
0.000209969
0.00021269
0.000215411
0.000218132
0.000220811
0.000223447
0.000226041
0.000228593
0.000231028
0.000233411
0.000235676
0.000237879
0.000239975
0.000241966
0.000243808
0.000245555
0.000247143
0.000248615
0.000249906
0.00025105
0.000252035
0.000252871
0.000253549
0.000254068
0.000254417
0.000254565
0.000325547
0.000325324
0.000324911
0.000324244
0.000323397
0.000322317
0.000321068
0.000319607
0.000317913
0.000316039
0.000313995
0.000311803
0.000309463
0.000306922
0.000304244
0.000301459
0.000298505
0.000295466
0.000292343
0.000289092
0.000285789
0.00028238
0.000278949
0.000275487
0.000272003
0.000268509
0.000265005
0.000261553
0.000258123
0.000254713
0.000251368
0.000248128
0.000244941
0.00024186
0.000238874
0.000236036
0.000233336
0.000230764
0.000228339
0.000226073
0.000224008
0.000222113
0.000220398
0.000218905
0.000217592
0.000216523
0.000215612
0.000214966
0.000214511
0.000214289
0.000214299
0.000214522
0.000214956
0.000215633
0.000216523
0.000217603
0.000218916
0.000220409
0.000222081
0.000223987
0.000226084
0.000228339
0.000230753
0.000233305
0.000236015
0.000238863
0.000241849
0.000244941
0.000248107
0.000251368
0.000254671
0.000258091
0.000261532
0.000265026
0.000268488
0.000272025
0.000275487
0.00027897
0.00028239
0.000285768
0.000289061
0.0002923
0.000295445
0.000298473
0.000301438
0.000304222
0.000306912
0.000309432
0.000311782
0.000314027
0.00031607
0.000317913
0.000319596
0.000321047
0.000322338
0.000323408
0.000324265
0.000324922
0.000325335
0.000325557
0.000395236
0.000394993
0.000394463
0.000393669
0.0003926
0.00039134
0.000389773
0.000387994
0.000385972
0.000383717
0.000381239
0.00037855
0.00037567
0.00037262
0.00036938
0.00036595
0.000362403
0.000358697
0.000354864
0.000350947
0.000346924
0.000342837
0.000338676
0.000334462
0.000330226
0.00032597
0.000321714
0.00031751
0.000313328
0.00030922
0.000305165
0.000301184
0.00029734
0.000293582
0.000290013
0.000286519
0.000283237
0.000280103
0.00027717
0.000274449
0.000271919
0.000269621
0.000267535
0.000265714
0.000264137
0.000262803
0.000261744
0.000260939
0.00026042
0.000260145
0.000260124
0.000260399
0.000260939
0.000261765
0.000262845
0.000264158
0.000265735
0.000267535
0.000269611
0.000271929
0.000274449
0.000277181
0.000280103
0.000283227
0.00028653
0.000289971
0.000293603
0.00029733
0.000301173
0.000305122
0.000309188
0.000313307
0.0003175
0.000321724
0.000325959
0.000330195
0.00033444
0.000338654
0.000342794
0.000346902
0.000350926
0.000354864
0.000358687
0.000362371
0.000365929
0.000369338
0.000372599
0.000375659
0.00037855
0.000381218
0.000383695
0.000385961
0.000387983
0.000389783
0.000391329
0.00039261
0.000393659
0.000394442
0.000394971
0.000395247
0.000463348
0.00046302
0.000462406
0.000461506
0.000460288
0.000458753
0.000456943
0.000454836
0.000452474
0.000449838
0.000446948
0.000443782
0.000440415
0.000436804
0.000432993
0.000429001
0.000424808
0.000420478
0.000415999
0.000411393
0.000406682
0.000401875
0.000396983
0.00039206
0.000387083
0.000382107
0.000377131
0.000372186
0.000367295
0.000362467
0.000357702
0.000353043
0.000348512
0.000344128
0.000339872
0.000335838
0.000331963
0.00032831
0.000324858
0.000321671
0.000318707
0.000316007
0.000313603
0.000311433
0.000309601
0.000308024
0.000306785
0.000305853
0.000305239
0.000304921
0.0003049
0.000305207
0.000305832
0.000306774
0.000308045
0.000309601
0.000311443
0.000313603
0.000316039
0.000318717
0.000321661
0.000324879
0.000328321
0.000331984
0.000335827
0.000339904
0.000344107
0.000348512
0.000353043
0.000357681
0.000362445
0.000367263
0.000372165
0.00037711
0.000382097
0.000387062
0.000392039
0.000396973
0.000401864
0.000406682
0.000411393
0.000415999
0.000420467
0.000424829
0.000429001
0.000433003
0.000436794
0.000440394
0.000443782
0.000446905
0.000449806
0.000452464
0.000454836
0.000456932
0.000458732
0.000460267
0.000461485
0.000462416
0.000463031
0.000463327
0.000529586
0.000529258
0.000528538
0.00052749
0.000526092
0.000524335
0.00052227
0.000519866
0.000517124
0.000514138
0.000510824
0.000507235
0.000503371
0.000499252
0.000494879
0.000490305
0.00048554
0.000480564
0.000475461
0.000470177
0.000464788
0.000459293
0.000453724
0.00044808
0.000442416
0.000436698
0.000431034
0.000425359
0.000419758
0.000414231
0.000408789
0.000403463
0.000398285
0.000393267
0.000388439
0.000383822
0.000379375
0.000375183
0.000371255
0.000367612
0.000364203
0.000361132
0.000358358
0.000355902
0.000353753
0.000351995
0.000350576
0.000349507
0.000348776
0.000348395
0.000348416
0.000348776
0.000349507
0.000350576
0.000351995
0.000353784
0.000355923
0.000358369
0.000361143
0.000364224
0.000367612
0.000371265
0.000375204
0.000379375
0.000383801
0.000388428
0.000393246
0.000398264
0.000403452
0.000408789
0.00041422
0.000419737
0.000425369
0.000431002
0.000436698
0.000442384
0.00044808
0.000453703
0.000459304
0.000464809
0.000470177
0.000475461
0.000480596
0.000485562
0.000490316
0.00049489
0.000499241
0.000503349
0.000507214
0.000510803
0.000514138
0.000517124
0.000519856
0.000522259
0.000524335
0.000526071
0.000527479
0.000528517
0.000529216
0.000529576
0.000593728
0.000593347
0.000592542
0.000591367
0.0005898
0.000587841
0.000585512
0.00058279
0.000579773
0.000576385
0.000572679
0.000568645
0.000564293
0.000559688
0.000554785
0.000549682
0.000544303
0.000538755
0.000532995
0.000527087
0.000521031
0.00051488
0.000508622
0.000502301
0.000495938
0.000489553
0.000483179
0.000476827
0.000470548
0.000464333
0.000458255
0.000452284
0.00044645
0.000440828
0.000435417
0.000430187
0.000425242
0.000420541
0.000416158
0.000412007
0.000408238
0.000404776
0.000401652
0.00039891
0.000396528
0.000394537
0.000392928
0.00039171
0.000390916
0.000390493
0.000390514
0.000390895
0.000391732
0.000392928
0.000394548
0.000396549
0.000398921
0.000401674
0.000404776
0.000408238
0.000412018
0.000416137
0.000420552
0.000425253
0.000430187
0.000435375
0.000440817
0.000446439
0.000452252
0.000458224
0.000464322
0.000470527
0.000476784
0.000483158
0.000489511
0.000495917
0.00050228
0.000508612
0.00051488
0.000521031
0.000527098
0.000532995
0.000538745
0.000544303
0.000549682
0.000554796
0.000559688
0.000564304
0.000568634
0.000572668
0.000576395
0.000579773
0.000582801
0.000585512
0.00058783
0.000589768
0.000591345
0.000592521
0.000593304
0.000593696
0.000655508
0.000655053
0.000654195
0.000652882
0.000651135
0.000648986
0.000646392
0.000643449
0.000640092
0.000636355
0.000632257
0.000627789
0.000623003
0.0006179
0.000612511
0.000606825
0.000600917
0.000594765
0.000588434
0.00058189
0.00057522
0.000568412
0.000561498
0.000554521
0.000547469
0.000540418
0.000533377
0.000526357
0.00051939
0.00051254
0.000505806
0.000499241
0.000492814
0.00048662
0.000480606
0.000474847
0.000469373
0.000464195
0.000459314
0.000454761
0.0004506
0.000446757
0.000443326
0.000440277
0.000437673
0.00043547
0.000433702
0.000432347
0.000431457
0.000431044
0.000431013
0.000431468
0.000432347
0.000433702
0.000435481
0.000437694
0.00044033
0.000443358
0.000446789
0.0004506
0.000454783
0.000459325
0.000464174
0.000469352
0.000474836
0.000480585
0.000486578
0.000492793
0.00049922
0.000505816
0.00051255
0.000519422
0.000526336
0.000533355
0.000540407
0.000547448
0.000554468
0.000561466
0.00056837
0.000575188
0.00058189
0.000588413
0.000594765
0.000600875
0.000606825
0.0006125
0.000617889
0.000623003
0.0006278
0.000632247
0.000636344
0.000640103
0.000643459
0.000646392
0.000648975
0.000651135
0.000652851
0.000654164
0.000655053
0.000655508
0.000714631
0.000714144
0.000713212
0.000711772
0.000709867
0.000707505
0.000704742
0.000701502
0.000697839
0.000693752
0.000689252
0.000684413
0.000679215
0.000673656
0.00066778
0.000661564
0.000655127
0.000648383
0.000641458
0.000634354
0.000627058
0.000619626
0.000612077
0.000604453
0.000596777
0.00058909
0.000581393
0.000573738
0.000566167
0.000558692
0.000551313
0.000544145
0.000537178
0.00053037
0.000523837
0.000517569
0.000511597
0.000505943
0.000500618
0.000495673
0.000491067
0.000486917
0.000483201
0.000479897
0.000477028
0.000474645
0.000472697
0.000471247
0.000470262
0.000469775
0.000469754
0.000470252
0.000471236
0.000472676
0.000474603
0.000477028
0.000479908
0.000483222
0.00048698
0.00049112
0.000495694
0.000500628
0.000505912
0.000511597
0.000517558
0.000523848
0.00053037
0.000537167
0.000544145
0.000551334
0.000558682
0.000566178
0.00057377
0.000581393
0.00058908
0.000596777
0.000604453
0.000612066
0.000619626
0.000627069
0.000634332
0.000641458
0.000648393
0.000655106
0.000661543
0.000667727
0.000673614
0.000679183
0.000684413
0.000689273
0.000693762
0.00069786
0.000701502
0.000704753
0.000707548
0.000709909
0.000711794
0.000713223
0.000714186
0.000714652
0.000770938
0.000770429
0.000769371
0.000767835
0.000765792
0.000763251
0.000760233
0.00075676
0.000752779
0.000748364
0.000743547
0.000738316
0.000732673
0.000726659
0.000720327
0.000713646
0.00070668
0.000699427
0.000691941
0.000684244
0.000676398
0.000668351
0.000660209
0.000651993
0.000643703
0.000635412
0.000627111
0.000618853
0.000610668
0.0006026
0.00059467
0.000586909
0.00057936
0.000572023
0.000564971
0.000558195
0.000551757
0.000545648
0.000539909
0.000534552
0.000529639
0.000525139
0.000521105
0.000517537
0.000514435
0.000511851
0.000509776
0.000508188
0.000507129
0.000506589
0.000506621
0.00050715
0.000508188
0.000509766
0.000511862
0.000514456
0.000517527
0.000521126
0.00052516
0.00052966
0.000534573
0.00053992
0.000545648
0.000551736
0.000558216
0.000564971
0.000572033
0.000579318
0.000586899
0.000594638
0.000602611
0.000610658
0.000618853
0.000627101
0.000635412
0.000643713
0.000651993
0.000660241
0.000668351
0.000676366
0.000684276
0.000691941
0.000699406
0.000706658
0.000713625
0.000720317
0.000726659
0.000732683
0.000738316
0.000743568
0.000748396
0.000752801
0.000756771
0.000760265
0.000763293
0.000765824
0.000767878
0.000769402
0.000770429
0.000770948
0.000824121
0.000823581
0.00082248
0.000820849
0.000818679
0.000815968
0.000812696
0.000808969
0.000804724
0.000800033
0.000794866
0.000789255
0.00078323
0.000776793
0.000769974
0.000762859
0.000755395
0.000747665
0.00073964
0.000731445
0.000722985
0.000714419
0.000705706
0.000696907
0.000688045
0.00067914
0.000670268
0.000661459
0.000652692
0.000644042
0.000635592
0.000627249
0.000619192
0.000611378
0.000603807
0.000596597
0.000589673
0.00058315
0.000577009
0.000571303
0.00056603
0.000561233
0.000556882
0.00055306
0.000549777
0.000546993
0.000544759
0.000543075
0.000541942
0.000541402
0.000541402
0.000541942
0.000543086
0.00054478
0.000547014
0.000549788
0.000553091
0.000556892
0.000561233
0.00056604
0.000571324
0.000577031
0.000583182
0.000589704
0.000596618
0.000603818
0.000611378
0.000619202
0.000627291
0.000635582
0.000644052
0.000652702
0.000661427
0.000670278
0.000679162
0.000688055
0.000696896
0.000705695
0.000714419
0.000723006
0.000731424
0.000739661
0.000747676
0.000755405
0.000762859
0.000770006
0.000776803
0.000783209
0.000789244
0.000794856
0.000800023
0.000804713
0.000808991
0.000812728
0.000815968
0.000818679
0.00082087
0.000822533
0.000823612
0.000824174
0.000874085
0.000873471
0.000872338
0.00087058
0.000868283
0.000865382
0.000861951
0.00085797
0.000853492
0.000848494
0.000842999
0.000837049
0.000830632
0.000823803
0.000816603
0.000809044
0.000801113
0.000792897
0.000784405
0.00077567
0.000766724
0.000757607
0.000748375
0.000739026
0.000729634
0.000720179
0.000710777
0.000701386
0.000692121
0.000682952
0.000673931
0.000665133
0.000656535
0.000648245
0.00064023
0.000632543
0.000625237
0.000618292
0.000611791
0.000605724
0.000600133
0.000595009
0.000590424
0.000586369
0.000582875
0.000579942
0.00057756
0.000575781
0.000574585
0.000573992
0.000573981
0.000574585
0.000575771
0.000577571
0.000579921
0.000582865
0.00058638
0.000590435
0.000595019
0.000600144
0.000605734
0.000611812
0.000618345
0.00062528
0.000632585
0.000640262
0.000648277
0.000656588
0.000665154
0.000673963
0.000682941
0.0006921
0.000701407
0.000710767
0.00072019
0.000729613
0.000739036
0.000748385
0.000757629
0.000766745
0.00077567
0.000784427
0.000792897
0.000801134
0.000809044
0.000816624
0.000823845
0.000830643
0.000837027
0.000842988
0.000848473
0.000853492
0.000857981
0.000861951
0.000865392
0.000868272
0.000870602
0.000872349
0.000873556
0.000874127
0.000920534
0.000919931
0.000918692
0.000916871
0.000914404
0.000911386
0.000907776
0.000903572
0.00089885
0.000893556
0.000887765
0.000881497
0.00087472
0.000867531
0.00085994
0.000851956
0.000843613
0.000834963
0.000826016
0.000816804
0.000807402
0.000797778
0.000788048
0.00077819
0.000768269
0.000758338
0.000748396
0.000738517
0.000728734
0.000719089
0.000709591
0.000700327
0.000691274
0.000682507
0.000674058
0.000665958
0.00065825
0.000650955
0.000644094
0.00063771
0.000631802
0.000626423
0.000621606
0.000617339
0.000613622
0.00061051
0.000608021
0.000606137
0.000604898
0.000604231
0.000604263
0.000604887
0.000606137
0.000608021
0.00061052
0.000613612
0.000617318
0.000621606
0.000626444
0.000631812
0.00063771
0.000644116
0.000650966
0.000658282
0.00066599
0.000674101
0.000682518
0.000691295
0.000700306
0.000709612
0.000719089
0.000728724
0.000738507
0.000748407
0.000758338
0.000768259
0.000778212
0.000788027
0.000797789
0.000807392
0.000816815
0.000826016
0.000834973
0.000843645
0.000851978
0.000859961
0.000867563
0.000874752
0.000881507
0.000887775
0.000893546
0.00089884
0.000903562
0.000907755
0.000911386
0.000914425
0.000916871
0.000918703
0.000919941
0.000920566
0.000963341
0.000962695
0.000961414
0.000959466
0.000956925
0.000953749
0.000949947
0.000945564
0.000940588
0.000935071
0.000929005
0.000922419
0.000915357
0.000907839
0.000899877
0.000891502
0.000882778
0.000873693
0.000864323
0.000854688
0.000844831
0.000834772
0.000824576
0.000814253
0.000803866
0.000793458
0.00078304
0.000772695
0.000762436
0.000752313
0.000742393
0.000732705
0.000723218
0.000714028
0.000705197
0.000696716
0.000688627
0.000681004
0.000673815
0.000667123
0.000660929
0.000655328
0.000650257
0.000645767
0.000641892
0.00063862
0.000636005
0.000634057
0.000632734
0.000632077
0.000632067
0.000632734
0.000634057
0.000636016
0.000638642
0.000641903
0.000645767
0.000650225
0.000655286
0.000660929
0.000667123
0.000673804
0.000680993
0.000688638
0.000696716
0.000705218
0.000714059
0.000723228
0.000732694
0.000742414
0.000752335
0.000762457
0.000772706
0.00078305
0.000793448
0.000803887
0.000814242
0.000824576
0.000834762
0.000844831
0.000854688
0.000864323
0.000873714
0.000882788
0.000891523
0.000899888
0.000907861
0.000915378
0.00092244
0.000929015
0.000935082
0.000940598
0.000945575
0.000949958
0.000953727
0.000956935
0.000959466
0.000961425
0.000962706
0.000963362
0.00100227
0.00100161
0.00100026
0.00099825
0.000995592
0.000992267
0.000988339
0.000983765
0.000978598
0.000972849
0.000966539
0.000959678
0.00095233
0.000944505
0.000936215
0.00092748
0.000918395
0.000908962
0.000899178
0.00088913
0.000878871
0.000868399
0.000857748
0.000847022
0.000836223
0.00082537
0.000814528
0.00080376
0.000793088
0.000782563
0.00077224
0.000762097
0.000752261
0.00074271
0.000733488
0.000724658
0.000716251
0.000708289
0.000700803
0.000693826
0.00068741
0.000681533
0.00067625
0.000671581
0.000667557
0.000664159
0.000661437
0.000659394
0.000658007
0.00065734
0.000657351
0.000658028
0.000659394
0.000661459
0.00066418
0.000667557
0.00067157
0.000676261
0.000681523
0.000687378
0.000693805
0.000700782
0.000708278
0.00071623
0.000724658
0.000733488
0.000742721
0.000752261
0.000762128
0.000772229
0.000782574
0.000793109
0.000803792
0.000814539
0.000825381
0.000836223
0.000847022
0.000857748
0.000868399
0.00087885
0.000889152
0.000899189
0.000908951
0.000918395
0.000927501
0.000936204
0.000944484
0.00095234
0.000959688
0.000966539
0.00097287
0.000978609
0.000983797
0.000988371
0.000992299
0.000995613
0.000998281
0.00100029
0.00100163
0.00100229
0.00103724
0.00103657
0.00103518
0.00103307
0.00103031
0.00102688
0.00102279
0.00101807
0.00101272
0.00100676
0.00100021
0.000993125
0.000985523
0.000977402
0.000968815
0.000959794
0.000950371
0.000940577
0.000930487
0.000920068
0.000909406
0.000898564
0.000887563
0.000876446
0.000865234
0.000854021
0.000842808
0.000831638
0.000820584
0.000809689
0.000798964
0.000788471
0.000778264
0.000768365
0.000758814
0.000749698
0.000740984
0.000732736
0.000724975
0.000717765
0.000711116
0.000705038
0.000699565
0.000694758
0.000690575
0.000687081
0.000684254
0.000682126
0.000680686
0.000679966
0.000679956
0.000680665
0.000682094
0.000684223
0.00068706
0.000690544
0.000694726
0.000699565
0.000705028
0.000711095
0.000717765
0.000724954
0.000732736
0.000740984
0.000749709
0.000758846
0.000768354
0.000778264
0.000788471
0.000798964
0.000809689
0.000820595
0.000831659
0.000842808
0.00085401
0.000865244
0.000876436
0.000887563
0.000898564
0.000909396
0.000920037
0.000930466
0.000940577
0.000950382
0.000959773
0.000968805
0.000977391
0.000985512
0.000993146
0.00100027
0.0010068
0.00101273
0.00101809
0.00102283
0.00102694
0.00103034
0.0010331
0.00103518
0.00103658
0.00103727
0.00106811
0.00106738
0.00106595
0.00106383
0.00106095
0.00105743
0.00105321
0.00104833
0.00104281
0.00103668
0.00102994
0.00102263
0.00101479
0.00100641
0.000997551
0.000988255
0.000978535
0.000968455
0.000958026
0.000947311
0.000936321
0.000925161
0.000913811
0.000902344
0.000890803
0.00087922
0.000867658
0.000856191
0.000844788
0.000833544
0.00082249
0.00081168
0.000801156
0.000790938
0.000781134
0.0007717
0.000762743
0.00075423
0.000746247
0.000738814
0.000731953
0.000725706
0.000720094
0.000715108
0.000710809
0.000707198
0.000704276
0.000702074
0.000700613
0.000699872
0.00069985
0.000700602
0.000702074
0.000704255
0.000707167
0.000710798
0.000715118
0.000720073
0.000725695
0.000731953
0.000738824
0.000746257
0.000754219
0.000762732
0.000771721
0.000781144
0.00079097
0.000801166
0.00081168
0.000822511
0.000833565
0.000844799
0.000856181
0.000867679
0.000879241
0.000890803
0.000902355
0.000913843
0.000925182
0.000936363
0.000947322
0.000958015
0.000968445
0.000978514
0.000988265
0.000997561
0.0010064
0.00101479
0.00102265
0.00102995
0.0010367
0.00104285
0.00104835
0.00105322
0.00105744
0.00106099
0.00106384
0.00106598
0.0010674
0.00106814
0.00109473
0.00109397
0.0010925
0.00109032
0.00108741
0.00108378
0.00107945
0.00107445
0.00106878
0.00106248
0.00105556
0.00104808
0.00104
0.00103141
0.00102234
0.00101279
0.00100281
0.000992479
0.000981785
0.000970784
0.00095954
0.000948052
0.000936416
0.000924642
0.000912805
0.000900936
0.000889099
0.000877293
0.000865636
0.000854095
0.000842745
0.000831659
0.000820849
0.000810409
0.00080033
0.000790663
0.000781462
0.000772727
0.000764564
0.00075693
0.000749899
0.000743473
0.000737702
0.000732578
0.000728173
0.000724478
0.000721481
0.000719226
0.000717733
0.000716971
0.000716971
0.000717723
0.000719226
0.000721492
0.000724478
0.000728173
0.000732599
0.000737702
0.000743462
0.000749921
0.00075693
0.000764574
0.000772759
0.000781473
0.000790673
0.000800319
0.000810431
0.000820891
0.00083168
0.000842755
0.000854106
0.000865636
0.000877325
0.00088912
0.000900989
0.000912847
0.000924695
0.000936458
0.000948095
0.000959572
0.000970816
0.000981796
0.000992469
0.0010028
0.00101279
0.00102235
0.00103143
0.00104003
0.00104809
0.00105559
0.00106251
0.00106882
0.00107445
0.00107945
0.00108378
0.00108744
0.00109036
0.00109255
0.00109404
0.00109476
0.001117
0.00111625
0.00111475
0.00111249
0.00110951
0.0011058
0.00110139
0.00109628
0.0010905
0.00108405
0.001077
0.00106934
0.0010611
0.00105232
0.00104305
0.00103332
0.00102315
0.00101257
0.00100165
0.000990425
0.000978927
0.000967216
0.000955316
0.000943298
0.000931186
0.000919063
0.000906961
0.000894922
0.000882968
0.000871216
0.000859633
0.000848303
0.000837313
0.00082663
0.000816328
0.000806449
0.000797026
0.000788132
0.000779768
0.000771975
0.000764807
0.000758253
0.000752345
0.000747147
0.000742647
0.000738856
0.000735828
0.000733509
0.000731985
0.000731191
0.000731201
0.000731995
0.000733531
0.000735828
0.000738867
0.000742657
0.000747147
0.000752366
0.000758285
0.000764818
0.000772007
0.0007798
0.000788164
0.000797069
0.000806471
0.000816328
0.000826641
0.000837303
0.000848346
0.000859664
0.000871226
0.000883011
0.000894943
0.000906992
0.000919105
0.000931239
0.00094333
0.000955347
0.000967227
0.000978937
0.000990425
0.00100165
0.00101259
0.00102315
0.00103333
0.00104308
0.00105234
0.00106112
0.00106936
0.00107703
0.00108406
0.00109051
0.00109628
0.00110142
0.00110581
0.00110952
0.00111251
0.00111478
0.00111627
0.00111702
0.00113484
0.00113408
0.00113256
0.00113026
0.00112723
0.00112347
0.00111896
0.00111378
0.00110788
0.00110134
0.00109417
0.00108637
0.00107802
0.00106909
0.00105964
0.00104976
0.00103937
0.00102862
0.00101751
0.00100611
0.000994406
0.000982516
0.000970424
0.000958206
0.000945903
0.000933579
0.000921244
0.000908993
0.000896838
0.000884874
0.000873111
0.000861613
0.0008504
0.000839547
0.000829086
0.000819028
0.000809478
0.000800436
0.000791912
0.000783982
0.000776676
0.000770016
0.000764045
0.000758772
0.000754156
0.000750312
0.00074721
0.00074486
0.000743282
0.000742541
0.000742551
0.000743335
0.000744881
0.00074721
0.000750312
0.000754156
0.000758751
0.000764045
0.000770059
0.000776697
0.000784024
0.000791955
0.000800457
0.000809509
0.000819039
0.000829108
0.000839547
0.00085041
0.000861623
0.000873143
0.000884906
0.000896881
0.000909036
0.000921286
0.000933589
0.000945924
0.000958227
0.000970467
0.000982569
0.000994459
0.00100615
0.00101757
0.00102868
0.00103943
0.00104977
0.00105967
0.00106911
0.00107801
0.00108639
0.00109418
0.00110135
0.0011079
0.00111383
0.00111899
0.00112349
0.00112725
0.00113028
0.0011326
0.00113412
0.00113489
0.00114822
0.00114744
0.00114588
0.00114358
0.0011405
0.00113668
0.00113213
0.00112685
0.00112091
0.00111428
0.001107
0.00109909
0.00109061
0.00108158
0.00107204
0.00106198
0.0010515
0.00104063
0.00102938
0.00101781
0.00100599
0.000993919
0.000981679
0.000969302
0.000956851
0.000944346
0.000931874
0.000919465
0.000907183
0.000895028
0.000883138
0.000871491
0.00086013
0.000849129
0.00083852
0.000828377
0.000818689
0.00080952
0.000800901
0.000792897
0.000785485
0.000778741
0.000772674
0.000767317
0.00076269
0.000758772
0.000755628
0.000753277
0.000751689
0.000750895
0.000750905
0.000751678
0.000753277
0.000755638
0.000758762
0.000762658
0.000767285
0.000772685
0.000778741
0.000785507
0.000792897
0.000800912
0.000809541
0.0008187
0.000828398
0.000838552
0.000849172
0.000860162
0.000871512
0.000883148
0.000895091
0.000907236
0.000919518
0.000931916
0.000944378
0.000956872
0.000969355
0.00098169
0.000993951
0.00100602
0.00101785
0.00102942
0.00104065
0.00105156
0.00106204
0.00107207
0.00108162
0.00109064
0.0010991
0.001107
0.0011143
0.00112094
0.00112687
0.00113217
0.00113673
0.00114053
0.0011436
0.0011459
0.00114745
0.00114826
0.00115703
0.00115626
0.00115468
0.00115236
0.00114924
0.00114538
0.00114079
0.00113549
0.00112948
0.00112278
0.00111547
0.00110748
0.00109892
0.00108981
0.00108019
0.00107005
0.00105948
0.00104851
0.00103715
0.00102549
0.00101355
0.00100139
0.000989059
0.000976565
0.000964008
0.000951398
0.00093882
0.000926294
0.000913906
0.000901688
0.000889649
0.000877897
0.000866472
0.000855366
0.000844672
0.000834444
0.000824661
0.000815396
0.000806735
0.000798625
0.00079115
0.000784363
0.000778233
0.000772833
0.000768142
0.000764214
0.000761059
0.000758687
0.000757099
0.000756295
0.000756284
0.000757078
0.000758677
0.000761038
0.000764204
0.000768153
0.000772843
0.000778243
0.000784374
0.000791182
0.000798646
0.000806735
0.000815407
0.000824661
0.000834444
0.000844693
0.000855397
0.000866515
0.000877939
0.000889702
0.00090172
0.000913949
0.000926347
0.000938872
0.000951451
0.000964051
0.000976597
0.00098908
0.0010014
0.00101358
0.00102553
0.00103718
0.00104854
0.00105952
0.00107006
0.0010802
0.00108981
0.00109894
0.00110751
0.00111548
0.00112283
0.0011295
0.00113551
0.00114082
0.00114542
0.00114928
0.00115239
0.00115471
0.00115628
0.00115706
0.00116126
0.00116047
0.00115891
0.00115653
0.00115345
0.00114958
0.00114497
0.00113964
0.00113361
0.00112688
0.00111949
0.0011115
0.00110292
0.00109375
0.00108405
0.00107389
0.00106329
0.00105224
0.00104086
0.00102911
0.00101714
0.00100491
0.00099249
0.000979975
0.000967343
0.000954701
0.000942038
0.000929502
0.000917008
0.000904716
0.000892677
0.000880851
0.000869363
0.000858224
0.000847488
0.000837186
0.000827371
0.000818096
0.000809361
0.000801198
0.000793712
0.000786862
0.000780742
0.000775289
0.000770599
0.00076665
0.000763484
0.00076108
0.000759492
0.000758666
0.000758666
0.000759492
0.00076108
0.000763473
0.00076666
0.000770609
0.00077531
0.000780721
0.000786894
0.000793733
0.00080123
0.000809382
0.000818096
0.000827382
0.000837207
0.00084752
0.000858246
0.000869384
0.000880893
0.000892699
0.000904769
0.00091704
0.000929502
0.000942081
0.000954733
0.000967375
0.000979975
0.000992521
0.00100493
0.00101714
0.00102915
0.00104088
0.00105227
0.0010633
0.00107391
0.00108405
0.00109375