/*--------------------------------*- C++ -*----------------------------------*\
  =========                 |
  \\      /  F ield         | OpenFOAM: The Open Source CFD Toolbox
   \\    /   O peration     | Website:  https://openfoam.org
    \\  /    A nd           | Version:  7
     \\/     M anipulation  |
\*---------------------------------------------------------------------------*/
FoamFile
{
    version     2.0;
    format      ascii;
    class       volScalarField;
    location    "0.05";
    object      gradTy;
}
// * * * * * * * * * * * * * * * * * * * * * * * * * * * * * * * * * * * * * //

dimensions      [0 -1 0 1 0 0 0];

internalField   nonuniform List<scalar> 
10000
(
9.42324e-07
9.52912e-07
9.52912e-07
9.52912e-07
9.42324e-07
9.42324e-07
9.52912e-07
9.42324e-07
9.52912e-07
9.42324e-07
9.42324e-07
9.31736e-07
9.52912e-07
9.42324e-07
9.42324e-07
9.52912e-07
9.42324e-07
9.52912e-07
9.42324e-07
9.42324e-07
9.31736e-07
9.42324e-07
9.52912e-07
9.52912e-07
9.42324e-07
9.42324e-07
9.31736e-07
9.31736e-07
9.31736e-07
9.31736e-07
9.21148e-07
9.21148e-07
9.31736e-07
9.31736e-07
9.31736e-07
9.1056e-07
9.31736e-07
9.1056e-07
9.1056e-07
9.21148e-07
9.21148e-07
9.31736e-07
9.1056e-07
9.21148e-07
9.31736e-07
9.31736e-07
9.1056e-07
9.42324e-07
9.21148e-07
9.21148e-07
9.21148e-07
9.31736e-07
9.21148e-07
9.21148e-07
9.31736e-07
9.31736e-07
9.1056e-07
9.1056e-07
9.31736e-07
9.1056e-07
9.21148e-07
9.31736e-07
9.42324e-07
9.21148e-07
9.31736e-07
9.21148e-07
9.21148e-07
9.21148e-07
9.1056e-07
9.52912e-07
9.42324e-07
9.52912e-07
9.42324e-07
9.52912e-07
9.42324e-07
9.42324e-07
9.31736e-07
9.52912e-07
9.635e-07
9.42324e-07
9.52912e-07
9.42324e-07
9.635e-07
9.42324e-07
9.21148e-07
9.42324e-07
9.42324e-07
9.52912e-07
9.42324e-07
9.635e-07
9.42324e-07
9.52912e-07
9.52912e-07
9.42324e-07
9.74088e-07
9.74088e-07
9.635e-07
9.635e-07
9.635e-07
9.52912e-07
2.84815e-06
2.8905e-06
2.85874e-06
2.86932e-06
2.85874e-06
2.86932e-06
2.84815e-06
2.84815e-06
2.82697e-06
2.83756e-06
2.81638e-06
2.82697e-06
2.83756e-06
2.83756e-06
2.84815e-06
2.83756e-06
2.84815e-06
2.85874e-06
2.84815e-06
2.81638e-06
2.8058e-06
2.8058e-06
2.81638e-06
2.8058e-06
2.8058e-06
2.8058e-06
2.81638e-06
2.8058e-06
2.79521e-06
2.8058e-06
2.79521e-06
2.78462e-06
2.8058e-06
2.79521e-06
2.79521e-06
2.77403e-06
2.75286e-06
2.74227e-06
2.74227e-06
2.76344e-06
2.78462e-06
2.77403e-06
2.76344e-06
2.77403e-06
2.77403e-06
2.77403e-06
2.76344e-06
2.76344e-06
2.76344e-06
2.75286e-06
2.76344e-06
2.75286e-06
2.74227e-06
2.76344e-06
2.75286e-06
2.74227e-06
2.73168e-06
2.74227e-06
2.76344e-06
2.75286e-06
2.76344e-06
2.76344e-06
2.77403e-06
2.77403e-06
2.78462e-06
2.78462e-06
2.78462e-06
2.78462e-06
2.77403e-06
2.78462e-06
2.78462e-06
2.78462e-06
2.79521e-06
2.81638e-06
2.8058e-06
2.8058e-06
2.82697e-06
2.8058e-06
2.81638e-06
2.82697e-06
2.8058e-06
2.79521e-06
2.83756e-06
2.81638e-06
2.81638e-06
2.83756e-06
2.82697e-06
2.83756e-06
2.84815e-06
2.83756e-06
2.84815e-06
2.83756e-06
2.85874e-06
2.85874e-06
2.85874e-06
2.85874e-06
2.85874e-06
2.85874e-06
2.84815e-06
2.85874e-06
4.75397e-06
4.7328e-06
4.72221e-06
4.72221e-06
4.76456e-06
4.75397e-06
4.74338e-06
4.7328e-06
4.7328e-06
4.72221e-06
4.71162e-06
4.71162e-06
4.70103e-06
4.71162e-06
4.70103e-06
4.67986e-06
4.70103e-06
4.7328e-06
4.7328e-06
4.70103e-06
4.67986e-06
4.67986e-06
4.69044e-06
4.67986e-06
4.66927e-06
4.66927e-06
4.66927e-06
4.64809e-06
4.65868e-06
4.63751e-06
4.64809e-06
4.63751e-06
4.61633e-06
4.61633e-06
4.62692e-06
4.62692e-06
4.59515e-06
4.58457e-06
4.58457e-06
4.56339e-06
4.60574e-06
4.57398e-06
4.57398e-06
4.5528e-06
4.56339e-06
4.54221e-06
4.59515e-06
4.56339e-06
4.56339e-06
4.57398e-06
4.57398e-06
4.57398e-06
4.57398e-06
4.57398e-06
4.56339e-06
4.56339e-06
4.56339e-06
4.56339e-06
4.57398e-06
4.60574e-06
4.57398e-06
4.57398e-06
4.58457e-06
4.59515e-06
4.60574e-06
4.59515e-06
4.60574e-06
4.61633e-06
4.62692e-06
4.62692e-06
4.61633e-06
4.62692e-06
4.64809e-06
4.62692e-06
4.64809e-06
4.64809e-06
4.66927e-06
4.64809e-06
4.66927e-06
4.65868e-06
4.69044e-06
4.67986e-06
4.65868e-06
4.69044e-06
4.67986e-06
4.67986e-06
4.67986e-06
4.67986e-06
4.69044e-06
4.72221e-06
4.71162e-06
4.72221e-06
4.71162e-06
4.7328e-06
4.70103e-06
4.71162e-06
4.7328e-06
4.74338e-06
4.7328e-06
4.71162e-06
6.62803e-06
6.59627e-06
6.61744e-06
6.59627e-06
6.60686e-06
6.59627e-06
6.61744e-06
6.59627e-06
6.59627e-06
6.57509e-06
6.56451e-06
6.56451e-06
6.55392e-06
6.54333e-06
6.55392e-06
6.58568e-06
6.57509e-06
6.56451e-06
6.54333e-06
6.58568e-06
6.55392e-06
6.55392e-06
6.52215e-06
6.52215e-06
6.51157e-06
6.50098e-06
6.49039e-06
6.4798e-06
6.4798e-06
6.46921e-06
6.4798e-06
6.4798e-06
6.43745e-06
6.43745e-06
6.41627e-06
6.41627e-06
6.40569e-06
6.41627e-06
6.3951e-06
6.41627e-06
6.3951e-06
6.38451e-06
6.40569e-06
6.3951e-06
6.37392e-06
6.40569e-06
6.38451e-06
6.38451e-06
6.38451e-06
6.38451e-06
6.3951e-06
6.3951e-06
6.40569e-06
6.37392e-06
6.38451e-06
6.38451e-06
6.41627e-06
6.41627e-06
6.3951e-06
6.40569e-06
6.42686e-06
6.41627e-06
6.41627e-06
6.43745e-06
6.41627e-06
6.41627e-06
6.44804e-06
6.44804e-06
6.42686e-06
6.44804e-06
6.44804e-06
6.46921e-06
6.46921e-06
6.46921e-06
6.4798e-06
6.4798e-06
6.49039e-06
6.52215e-06
6.53274e-06
6.53274e-06
6.54333e-06
6.55392e-06
6.53274e-06
6.53274e-06
6.53274e-06
6.52215e-06
6.53274e-06
6.55392e-06
6.55392e-06
6.56451e-06
6.58568e-06
6.59627e-06
6.60686e-06
6.59627e-06
6.60686e-06
6.59627e-06
6.59627e-06
6.60686e-06
6.61744e-06
6.60686e-06
8.44915e-06
8.44915e-06
8.45974e-06
8.43857e-06
8.43857e-06
8.43857e-06
8.43857e-06
8.43857e-06
8.42798e-06
8.4068e-06
8.41739e-06
8.39621e-06
8.4068e-06
8.4068e-06
8.38563e-06
8.38563e-06
8.37504e-06
8.38563e-06
8.36445e-06
8.35386e-06
8.36445e-06
8.33269e-06
8.33269e-06
8.33269e-06
8.33269e-06
8.31151e-06
8.29033e-06
8.30092e-06
8.27975e-06
8.29033e-06
8.26916e-06
8.26916e-06
8.26916e-06
8.24798e-06
8.2374e-06
8.20563e-06
8.19504e-06
8.20563e-06
8.18446e-06
8.18446e-06
8.18446e-06
8.18446e-06
8.19504e-06
8.17387e-06
8.19504e-06
8.18446e-06
8.17387e-06
8.17387e-06
8.18446e-06
8.18446e-06
8.18446e-06
8.18446e-06
8.18446e-06
8.17387e-06
8.17387e-06
8.18446e-06
8.18446e-06
8.19504e-06
8.19504e-06
8.16328e-06
8.20563e-06
8.19504e-06
8.19504e-06
8.20563e-06
8.21622e-06
8.2374e-06
8.24798e-06
8.2374e-06
8.25857e-06
8.24798e-06
8.24798e-06
8.25857e-06
8.27975e-06
8.30092e-06
8.30092e-06
8.31151e-06
8.31151e-06
8.35386e-06
8.33269e-06
8.34327e-06
8.34327e-06
8.34327e-06
8.35386e-06
8.35386e-06
8.37504e-06
8.38563e-06
8.38563e-06
8.38563e-06
8.38563e-06
8.41739e-06
8.43857e-06
8.43857e-06
8.44915e-06
8.44915e-06
8.44915e-06
8.44915e-06
8.45974e-06
8.45974e-06
8.45974e-06
8.48092e-06
1.02703e-05
1.02809e-05
1.02703e-05
1.02491e-05
1.02385e-05
1.02597e-05
1.02385e-05
1.02279e-05
1.02491e-05
1.02385e-05
1.02067e-05
1.02067e-05
1.02067e-05
1.02067e-05
1.02067e-05
1.01962e-05
1.0175e-05
1.01644e-05
1.01644e-05
1.01432e-05
1.01538e-05
1.01326e-05
1.01432e-05
1.0122e-05
1.01115e-05
1.00903e-05
1.00585e-05
1.00585e-05
1.00585e-05
1.00585e-05
1.00479e-05
1.00373e-05
1.00268e-05
9.99499e-06
1.00056e-05
9.9844e-06
9.9844e-06
9.94205e-06
9.96323e-06
9.94205e-06
9.93146e-06
9.95264e-06
9.92087e-06
9.92087e-06
9.95264e-06
9.92087e-06
9.92087e-06
9.93146e-06
9.93146e-06
9.93146e-06
9.93146e-06
9.94205e-06
9.92087e-06
9.94205e-06
9.94205e-06
9.95264e-06
9.93146e-06
9.93146e-06
9.95264e-06
9.95264e-06
9.96323e-06
9.9844e-06
9.9844e-06
9.99499e-06
9.99499e-06
1.00056e-05
1.00056e-05
1.00162e-05
1.00373e-05
1.00162e-05
1.00373e-05
1.00585e-05
1.00797e-05
1.01009e-05
1.00797e-05
1.01115e-05
1.01009e-05
1.0122e-05
1.0122e-05
1.01432e-05
1.01432e-05
1.01538e-05
1.01644e-05
1.01644e-05
1.01644e-05
1.01856e-05
1.02173e-05
1.02279e-05
1.02173e-05
1.02173e-05
1.02173e-05
1.02279e-05
1.02279e-05
1.02491e-05
1.02491e-05
1.02703e-05
1.02809e-05
1.02703e-05
1.02809e-05
1.0302e-05
1.20385e-05
1.20385e-05
1.20279e-05
1.2049e-05
1.20279e-05
1.20067e-05
1.20067e-05
1.19961e-05
1.19749e-05
1.19749e-05
1.19855e-05
1.19855e-05
1.19855e-05
1.19749e-05
1.19749e-05
1.19538e-05
1.19326e-05
1.19008e-05
1.18902e-05
1.19114e-05
1.19114e-05
1.19008e-05
1.1869e-05
1.18479e-05
1.18267e-05
1.18373e-05
1.18161e-05
1.18055e-05
1.17949e-05
1.17632e-05
1.17632e-05
1.17526e-05
1.1742e-05
1.17208e-05
1.16996e-05
1.16996e-05
1.16996e-05
1.16891e-05
1.16891e-05
1.16573e-05
1.16573e-05
1.16679e-05
1.16573e-05
1.16679e-05
1.16361e-05
1.16573e-05
1.16573e-05
1.16467e-05
1.16467e-05
1.16255e-05
1.16149e-05
1.16255e-05
1.16361e-05
1.16255e-05
1.16467e-05
1.16361e-05
1.16467e-05
1.16467e-05
1.16679e-05
1.16679e-05
1.16785e-05
1.16891e-05
1.16891e-05
1.17102e-05
1.16996e-05
1.17102e-05
1.17102e-05
1.17208e-05
1.1742e-05
1.1742e-05
1.17632e-05
1.17738e-05
1.17949e-05
1.18267e-05
1.18267e-05
1.18267e-05
1.18585e-05
1.18585e-05
1.1869e-05
1.18796e-05
1.19008e-05
1.1922e-05
1.19326e-05
1.19326e-05
1.1922e-05
1.19432e-05
1.19538e-05
1.19643e-05
1.19749e-05
1.19855e-05
1.19855e-05
1.19961e-05
1.19961e-05
1.20067e-05
1.2049e-05
1.20385e-05
1.2049e-05
1.20702e-05
1.20808e-05
1.20596e-05
1.37643e-05
1.37537e-05
1.37643e-05
1.37749e-05
1.37431e-05
1.37431e-05
1.37219e-05
1.37219e-05
1.37219e-05
1.37325e-05
1.37219e-05
1.37113e-05
1.36902e-05
1.36796e-05
1.3669e-05
1.36372e-05
1.36372e-05
1.36161e-05
1.36372e-05
1.36055e-05
1.35949e-05
1.36055e-05
1.35737e-05
1.35525e-05
1.35314e-05
1.35314e-05
1.34996e-05
1.3489e-05
1.3489e-05
1.34572e-05
1.34361e-05
1.34255e-05
1.34043e-05
1.34149e-05
1.33937e-05
1.33831e-05
1.33831e-05
1.33831e-05
1.33514e-05
1.33514e-05
1.33302e-05
1.33408e-05
1.33196e-05
1.33302e-05
1.32878e-05
1.32984e-05
1.32878e-05
1.3309e-05
1.32878e-05
1.32984e-05
1.3309e-05
1.33196e-05
1.3309e-05
1.32984e-05
1.33196e-05
1.33196e-05
1.3309e-05
1.33302e-05
1.33196e-05
1.33514e-05
1.33408e-05
1.33514e-05
1.33619e-05
1.33619e-05
1.33831e-05
1.34043e-05
1.33937e-05
1.34043e-05
1.34043e-05
1.34361e-05
1.34678e-05
1.34466e-05
1.34784e-05
1.3489e-05
1.35208e-05
1.35314e-05
1.35631e-05
1.35314e-05
1.35631e-05
1.35737e-05
1.36055e-05
1.36055e-05
1.36055e-05
1.36372e-05
1.3669e-05
1.36584e-05
1.36796e-05
1.36902e-05
1.37113e-05
1.37113e-05
1.37219e-05
1.37219e-05
1.37219e-05
1.37431e-05
1.37537e-05
1.37537e-05
1.37537e-05
1.37643e-05
1.37643e-05
1.37643e-05
1.54266e-05
1.54266e-05
1.5416e-05
1.5416e-05
1.54054e-05
1.5416e-05
1.54266e-05
1.54054e-05
1.53948e-05
1.53842e-05
1.53736e-05
1.53736e-05
1.53525e-05
1.53525e-05
1.52995e-05
1.53101e-05
1.52995e-05
1.52889e-05
1.52784e-05
1.52466e-05
1.52466e-05
1.52466e-05
1.5236e-05
1.52148e-05
1.51937e-05
1.51407e-05
1.51513e-05
1.51301e-05
1.5109e-05
1.50984e-05
1.50878e-05
1.50666e-05
1.5056e-05
1.50454e-05
1.50454e-05
1.50348e-05
1.50137e-05
1.50137e-05
1.50031e-05
1.49713e-05
1.49607e-05
1.4929e-05
1.49395e-05
1.49184e-05
1.49184e-05
1.49078e-05
1.4929e-05
1.49078e-05
1.49078e-05
1.49184e-05
1.4929e-05
1.49078e-05
1.49184e-05
1.49184e-05
1.49078e-05
1.49184e-05
1.49501e-05
1.49395e-05
1.49607e-05
1.49501e-05
1.49607e-05
1.49925e-05
1.49819e-05
1.49819e-05
1.50242e-05
1.50137e-05
1.50242e-05
1.5056e-05
1.5056e-05
1.50878e-05
1.50984e-05
1.5109e-05
1.51301e-05
1.51301e-05
1.51513e-05
1.51725e-05
1.51619e-05
1.51725e-05
1.52148e-05
1.5236e-05
1.5236e-05
1.52572e-05
1.52784e-05
1.52889e-05
1.53101e-05
1.53101e-05
1.53313e-05
1.53631e-05
1.53842e-05
1.53736e-05
1.53842e-05
1.53948e-05
1.54054e-05
1.54054e-05
1.53948e-05
1.5416e-05
1.5416e-05
1.54266e-05
1.54266e-05
1.54372e-05
1.70148e-05
1.70254e-05
1.70148e-05
1.70042e-05
1.70465e-05
1.70254e-05
1.70254e-05
1.70148e-05
1.70042e-05
1.69936e-05
1.69936e-05
1.6983e-05
1.69618e-05
1.69301e-05
1.69195e-05
1.68983e-05
1.68877e-05
1.68877e-05
1.6856e-05
1.6856e-05
1.68348e-05
1.68242e-05
1.68136e-05
1.68136e-05
1.67924e-05
1.67607e-05
1.67607e-05
1.67289e-05
1.66865e-05
1.66654e-05
1.66548e-05
1.66336e-05
1.6623e-05
1.66018e-05
1.66018e-05
1.66124e-05
1.65913e-05
1.65807e-05
1.65277e-05
1.65383e-05
1.65277e-05
1.6496e-05
1.64748e-05
1.64854e-05
1.64854e-05
1.64748e-05
1.64748e-05
1.64536e-05
1.64748e-05
1.64748e-05
1.64748e-05
1.64748e-05
1.64748e-05
1.64748e-05
1.64748e-05
1.64748e-05
1.65066e-05
1.6496e-05
1.65066e-05
1.65171e-05
1.65383e-05
1.65171e-05
1.65595e-05
1.65701e-05
1.65701e-05
1.65701e-05
1.66018e-05
1.6623e-05
1.66442e-05
1.66654e-05
1.6676e-05
1.67077e-05
1.66971e-05
1.67183e-05
1.67289e-05
1.67501e-05
1.67713e-05
1.67818e-05
1.68136e-05
1.68242e-05
1.68348e-05
1.68771e-05
1.68983e-05
1.68877e-05
1.69301e-05
1.69512e-05
1.69512e-05
1.69512e-05
1.69724e-05
1.6983e-05
1.70042e-05
1.70042e-05
1.69936e-05
1.69936e-05
1.70042e-05
1.70148e-05
1.7036e-05
1.70254e-05
1.70571e-05
1.70465e-05
1.85818e-05
1.85606e-05
1.85712e-05
1.855e-05
1.855e-05
1.85606e-05
1.855e-05
1.855e-05
1.85394e-05
1.85394e-05
1.85077e-05
1.85077e-05
1.84759e-05
1.84653e-05
1.84547e-05
1.84336e-05
1.84124e-05
1.84018e-05
1.837e-05
1.83594e-05
1.83171e-05
1.83065e-05
1.82853e-05
1.82959e-05
1.82747e-05
1.82747e-05
1.82536e-05
1.82112e-05
1.819e-05
1.819e-05
1.81371e-05
1.81265e-05
1.81053e-05
1.80947e-05
1.8063e-05
1.8063e-05
1.8063e-05
1.80312e-05
1.80418e-05
1.80418e-05
1.801e-05
1.79783e-05
1.79783e-05
1.79571e-05
1.79889e-05
1.79783e-05
1.79571e-05
1.79783e-05
1.79783e-05
1.79571e-05
1.79571e-05
1.79465e-05
1.79571e-05
1.79889e-05
1.79783e-05
1.79889e-05
1.79889e-05
1.79995e-05
1.79995e-05
1.80206e-05
1.79995e-05
1.80312e-05
1.80524e-05
1.80736e-05
1.80842e-05
1.81053e-05
1.80842e-05
1.81159e-05
1.81371e-05
1.81689e-05
1.819e-05
1.819e-05
1.82112e-05
1.82324e-05
1.82747e-05
1.82853e-05
1.82959e-05
1.83277e-05
1.83277e-05
1.83594e-05
1.83806e-05
1.83912e-05
1.84018e-05
1.8423e-05
1.84547e-05
1.84759e-05
1.84759e-05
1.84971e-05
1.85183e-05
1.85394e-05
1.85394e-05
1.85288e-05
1.85606e-05
1.855e-05
1.855e-05
1.85818e-05
1.85712e-05
1.85818e-05
1.85712e-05
1.85818e-05
2.00429e-05
2.00429e-05
2.00323e-05
2.00217e-05
2.00217e-05
2.00217e-05
2.00006e-05
2.00006e-05
2.00006e-05
1.999e-05
1.99794e-05
1.99688e-05
1.99794e-05
1.99582e-05
1.9937e-05
1.99159e-05
1.98841e-05
1.98523e-05
1.98312e-05
1.97994e-05
1.97888e-05
1.9757e-05
1.9757e-05
1.97253e-05
1.97147e-05
1.97041e-05
1.96618e-05
1.96512e-05
1.96194e-05
1.95982e-05
1.9577e-05
1.95453e-05
1.95559e-05
1.95241e-05
1.95135e-05
1.94923e-05
1.94712e-05
1.94712e-05
1.94818e-05
1.94606e-05
1.94288e-05
1.94288e-05
1.94288e-05
1.94182e-05
1.93971e-05
1.93865e-05
1.93971e-05
1.93971e-05
1.93759e-05
1.93971e-05
1.93759e-05
1.93653e-05
1.93653e-05
1.93653e-05
1.93865e-05
1.93971e-05
1.93865e-05
1.94182e-05
1.94394e-05
1.945e-05
1.94712e-05
1.94712e-05
1.94712e-05
1.95029e-05
1.95135e-05
1.95029e-05
1.95347e-05
1.95665e-05
1.9577e-05
1.95876e-05
1.96088e-05
1.96512e-05
1.96512e-05
1.96723e-05
1.96935e-05
1.97147e-05
1.9757e-05
1.97994e-05
1.97888e-05
1.98206e-05
1.98417e-05
1.98523e-05
1.98735e-05
1.99053e-05
1.99053e-05
1.99265e-05
1.99582e-05
1.99582e-05
1.999e-05
1.999e-05
1.999e-05
2.00112e-05
2.00217e-05
2.00323e-05
2.00429e-05
2.00323e-05
2.00535e-05
2.00535e-05
2.00429e-05
2.00535e-05
2.14299e-05
2.14405e-05
2.14405e-05
2.14299e-05
2.14193e-05
2.14193e-05
2.14088e-05
2.14088e-05
2.1377e-05
2.1377e-05
2.13876e-05
2.13558e-05
2.13346e-05
2.13029e-05
2.12923e-05
2.12923e-05
2.12605e-05
2.12288e-05
2.12076e-05
2.1197e-05
2.11758e-05
2.11229e-05
2.11123e-05
2.10699e-05
2.10805e-05
2.10488e-05
2.10382e-05
2.1017e-05
2.09852e-05
2.09641e-05
2.09429e-05
2.09323e-05
2.089e-05
2.09005e-05
2.08794e-05
2.08476e-05
2.0837e-05
2.08158e-05
2.08052e-05
2.07841e-05
2.07735e-05
2.07735e-05
2.07735e-05
2.07523e-05
2.07311e-05
2.07311e-05
2.07311e-05
2.07205e-05
2.06994e-05
2.07205e-05
2.071e-05
2.07205e-05
2.071e-05
2.07205e-05
2.07205e-05
2.07417e-05
2.07629e-05
2.07735e-05
2.07735e-05
2.07947e-05
2.07841e-05
2.08052e-05
2.0837e-05
2.08264e-05
2.08476e-05
2.089e-05
2.09111e-05
2.09111e-05
2.09323e-05
2.09535e-05
2.09641e-05
2.09852e-05
2.10064e-05
2.10382e-05
2.10594e-05
2.11017e-05
2.11229e-05
2.11335e-05
2.11652e-05
2.11758e-05
2.1197e-05
2.12288e-05
2.12605e-05
2.12817e-05
2.12817e-05
2.13135e-05
2.13346e-05
2.13346e-05
2.13452e-05
2.13558e-05
2.13664e-05
2.13876e-05
2.1377e-05
2.13982e-05
2.14193e-05
2.14299e-05
2.14193e-05
2.14405e-05
2.14511e-05
2.14405e-05
2.27217e-05
2.27428e-05
2.27322e-05
2.2764e-05
2.27322e-05
2.27111e-05
2.27111e-05
2.27111e-05
2.26899e-05
2.26793e-05
2.26793e-05
2.26475e-05
2.2637e-05
2.26052e-05
2.25946e-05
2.25628e-05
2.25417e-05
2.25205e-05
2.24887e-05
2.24675e-05
2.24358e-05
2.24464e-05
2.2404e-05
2.2404e-05
2.23511e-05
2.23299e-05
2.22981e-05
2.22876e-05
2.22664e-05
2.22558e-05
2.2224e-05
2.22029e-05
2.21923e-05
2.21711e-05
2.21499e-05
2.21181e-05
2.21076e-05
2.20758e-05
2.20652e-05
2.20334e-05
2.20229e-05
2.20229e-05
2.20123e-05
2.20229e-05
2.20123e-05
2.20017e-05
2.19805e-05
2.19805e-05
2.19911e-05
2.19487e-05
2.19593e-05
2.19805e-05
2.19911e-05
2.19911e-05
2.19805e-05
2.20017e-05
2.20123e-05
2.20334e-05
2.2044e-05
2.2044e-05
2.20758e-05
2.20758e-05
2.2097e-05
2.21181e-05
2.21393e-05
2.21605e-05
2.21817e-05
2.21923e-05
2.22134e-05
2.22452e-05
2.2277e-05
2.22876e-05
2.23087e-05
2.23299e-05
2.23405e-05
2.23617e-05
2.23723e-05
2.2404e-05
2.24252e-05
2.2457e-05
2.24993e-05
2.25099e-05
2.25523e-05
2.2584e-05
2.25946e-05
2.26052e-05
2.26264e-05
2.2637e-05
2.2637e-05
2.26475e-05
2.26687e-05
2.26793e-05
2.27111e-05
2.27111e-05
2.27217e-05
2.27217e-05
2.27428e-05
2.27428e-05
2.2764e-05
2.2764e-05
2.39499e-05
2.39393e-05
2.39393e-05
2.39499e-05
2.39499e-05
2.39287e-05
2.39181e-05
2.38969e-05
2.38969e-05
2.38863e-05
2.38546e-05
2.3844e-05
2.38122e-05
2.38016e-05
2.3791e-05
2.37804e-05
2.37381e-05
2.37063e-05
2.37063e-05
2.36746e-05
2.36534e-05
2.3611e-05
2.35899e-05
2.35475e-05
2.35263e-05
2.35158e-05
2.35052e-05
2.34522e-05
2.34416e-05
2.34205e-05
2.34099e-05
2.33781e-05
2.33781e-05
2.33252e-05
2.3304e-05
2.32934e-05
2.32722e-05
2.32616e-05
2.32511e-05
2.32299e-05
2.32087e-05
2.31875e-05
2.31875e-05
2.31769e-05
2.31769e-05
2.31664e-05
2.31452e-05
2.31452e-05
2.31452e-05
2.3124e-05
2.31452e-05
2.31664e-05
2.31664e-05
2.31452e-05
2.31452e-05
2.31558e-05
2.31769e-05
2.31981e-05
2.32299e-05
2.32087e-05
2.32299e-05
2.32616e-05
2.32616e-05
2.3304e-05
2.33146e-05
2.33463e-05
2.33569e-05
2.33993e-05
2.34205e-05
2.34099e-05
2.34416e-05
2.34734e-05
2.35052e-05
2.35158e-05
2.35475e-05
2.35475e-05
2.35793e-05
2.36005e-05
2.36428e-05
2.3664e-05
2.36957e-05
2.37063e-05
2.37381e-05
2.37699e-05
2.3791e-05
2.38228e-05
2.38122e-05
2.3844e-05
2.38546e-05
2.38652e-05
2.38863e-05
2.39075e-05
2.39075e-05
2.39181e-05
2.39287e-05
2.39393e-05
2.39393e-05
2.39604e-05
2.39499e-05
2.39499e-05
2.5051e-05
2.50616e-05
2.50616e-05
2.5051e-05
2.50616e-05
2.5051e-05
2.50298e-05
2.50192e-05
2.50086e-05
2.49875e-05
2.49769e-05
2.49557e-05
2.49345e-05
2.49451e-05
2.49028e-05
2.4871e-05
2.4871e-05
2.48498e-05
2.48075e-05
2.47863e-05
2.47545e-05
2.47228e-05
2.47122e-05
2.4691e-05
2.46487e-05
2.46275e-05
2.45745e-05
2.4564e-05
2.45322e-05
2.4511e-05
2.44898e-05
2.45004e-05
2.44369e-05
2.44157e-05
2.4384e-05
2.43628e-05
2.43628e-05
2.43628e-05
2.43416e-05
2.43204e-05
2.42993e-05
2.42887e-05
2.42569e-05
2.42463e-05
2.42463e-05
2.42357e-05
2.42463e-05
2.42251e-05
2.42146e-05
2.42251e-05
2.42251e-05
2.42251e-05
2.42463e-05
2.42569e-05
2.42463e-05
2.42463e-05
2.42781e-05
2.42781e-05
2.42781e-05
2.43098e-05
2.4331e-05
2.43522e-05
2.43522e-05
2.43628e-05
2.44157e-05
2.44475e-05
2.44793e-05
2.44687e-05
2.45216e-05
2.45322e-05
2.45428e-05
2.4564e-05
2.45957e-05
2.46275e-05
2.46487e-05
2.47016e-05
2.47122e-05
2.47122e-05
2.47651e-05
2.47969e-05
2.48181e-05
2.48498e-05
2.48392e-05
2.4871e-05
2.49028e-05
2.49134e-05
2.49345e-05
2.49557e-05
2.49769e-05
2.49981e-05
2.50298e-05
2.50086e-05
2.50298e-05
2.50192e-05
2.50298e-05
2.5051e-05
2.50616e-05
2.50722e-05
2.50828e-05
2.50722e-05
2.60674e-05
2.60674e-05
2.6078e-05
2.6078e-05
2.60674e-05
2.60569e-05
2.60463e-05
2.60357e-05
2.60357e-05
2.60039e-05
2.59827e-05
2.59721e-05
2.59616e-05
2.5951e-05
2.59192e-05
2.58769e-05
2.58769e-05
2.58451e-05
2.58345e-05
2.57816e-05
2.5771e-05
2.57498e-05
2.5718e-05
2.56757e-05
2.56651e-05
2.56122e-05
2.5591e-05
2.5538e-05
2.5538e-05
2.55063e-05
2.54851e-05
2.54533e-05
2.54216e-05
2.5411e-05
2.54004e-05
2.53792e-05
2.53686e-05
2.53369e-05
2.53369e-05
2.53157e-05
2.52945e-05
2.52628e-05
2.52628e-05
2.52522e-05
2.52098e-05
2.52098e-05
2.51992e-05
2.52098e-05
2.51992e-05
2.52204e-05
2.52098e-05
2.51886e-05
2.51992e-05
2.51992e-05
2.52522e-05
2.5231e-05
2.5231e-05
2.5231e-05
2.52416e-05
2.52733e-05
2.52945e-05
2.53051e-05
2.53369e-05
2.53369e-05
2.53686e-05
2.53898e-05
2.54322e-05
2.54745e-05
2.54745e-05
2.55275e-05
2.5538e-05
2.55592e-05
2.55698e-05
2.55804e-05
2.56439e-05
2.56545e-05
2.56863e-05
2.5718e-05
2.57392e-05
2.57816e-05
2.58133e-05
2.58345e-05
2.58557e-05
2.58769e-05
2.5898e-05
2.59192e-05
2.59404e-05
2.59721e-05
2.59721e-05
2.60039e-05
2.60145e-05
2.60357e-05
2.60357e-05
2.60569e-05
2.60569e-05
2.60569e-05
2.6078e-05
2.60463e-05
2.60886e-05
2.60886e-05
2.70204e-05
2.70098e-05
2.69886e-05
2.69886e-05
2.6978e-05
2.69568e-05
2.69568e-05
2.69568e-05
2.69356e-05
2.69145e-05
2.69145e-05
2.69039e-05
2.68721e-05
2.68509e-05
2.68298e-05
2.6798e-05
2.67874e-05
2.67768e-05
2.67345e-05
2.67027e-05
2.66604e-05
2.66392e-05
2.65968e-05
2.66074e-05
2.65757e-05
2.65227e-05
2.65015e-05
2.64698e-05
2.6438e-05
2.63957e-05
2.63957e-05
2.63533e-05
2.63321e-05
2.6311e-05
2.62792e-05
2.62792e-05
2.6258e-05
2.6258e-05
2.62157e-05
2.62157e-05
2.62051e-05
2.62051e-05
2.61521e-05
2.61416e-05
2.61204e-05
2.61204e-05
2.60886e-05
2.60992e-05
2.61098e-05
2.60992e-05
2.60886e-05
2.60886e-05
2.60886e-05
2.61204e-05
2.61204e-05
2.61098e-05
2.61098e-05
2.61521e-05
2.61416e-05
2.61733e-05
2.62051e-05
2.62051e-05
2.62263e-05
2.62474e-05
2.62898e-05
2.63004e-05
2.63215e-05
2.63427e-05
2.63745e-05
2.64063e-05
2.64274e-05
2.6438e-05
2.6491e-05
2.65227e-05
2.65227e-05
2.65439e-05
2.65651e-05
2.6618e-05
2.66392e-05
2.66921e-05
2.67027e-05
2.67557e-05
2.67768e-05
2.6798e-05
2.68192e-05
2.68298e-05
2.68827e-05
2.68827e-05
2.68933e-05
2.69039e-05
2.69251e-05
2.69462e-05
2.69674e-05
2.6978e-05
2.69886e-05
2.69886e-05
2.69886e-05
2.69886e-05
2.69886e-05
2.69992e-05
2.78039e-05
2.78039e-05
2.78144e-05
2.78039e-05
2.78039e-05
2.77827e-05
2.77827e-05
2.77509e-05
2.77403e-05
2.77403e-05
2.77086e-05
2.77086e-05
2.77086e-05
2.76556e-05
2.7645e-05
2.76133e-05
2.75709e-05
2.75497e-05
2.7518e-05
2.74862e-05
2.7465e-05
2.74333e-05
2.74015e-05
2.73803e-05
2.73486e-05
2.73274e-05
2.73062e-05
2.7285e-05
2.72427e-05
2.72215e-05
2.71792e-05
2.71474e-05
2.71368e-05
2.71051e-05
2.70945e-05
2.70627e-05
2.70204e-05
2.70204e-05
2.70098e-05
2.69886e-05
2.6978e-05
2.69674e-05
2.69568e-05
2.69145e-05
2.69356e-05
2.68933e-05
2.69145e-05
2.68933e-05
2.68933e-05
2.68721e-05
2.68827e-05
2.68933e-05
2.68933e-05
2.68933e-05
2.68933e-05
2.69251e-05
2.69145e-05
2.69251e-05
2.69568e-05
2.6978e-05
2.6978e-05
2.69992e-05
2.70204e-05
2.70415e-05
2.70521e-05
2.70839e-05
2.70945e-05
2.71156e-05
2.71686e-05
2.72003e-05
2.72215e-05
2.72639e-05
2.72533e-05
2.72956e-05
2.73168e-05
2.73486e-05
2.73909e-05
2.74227e-05
2.74439e-05
2.74545e-05
2.74862e-05
2.75074e-05
2.75603e-05
2.75921e-05
2.76133e-05
2.76556e-05
2.76662e-05
2.7698e-05
2.77086e-05
2.77192e-05
2.77297e-05
2.77509e-05
2.77509e-05
2.77827e-05
2.77827e-05
2.77933e-05
2.78039e-05
2.78144e-05
2.78144e-05
2.78144e-05
2.85132e-05
2.85027e-05
2.85132e-05
2.85027e-05
2.84709e-05
2.84815e-05
2.84815e-05
2.84603e-05
2.84603e-05
2.84285e-05
2.83968e-05
2.83968e-05
2.8365e-05
2.83333e-05
2.83015e-05
2.82909e-05
2.8238e-05
2.8238e-05
2.82062e-05
2.81956e-05
2.81744e-05
2.81215e-05
2.80791e-05
2.8058e-05
2.80262e-05
2.80156e-05
2.8005e-05
2.79839e-05
2.79415e-05
2.79097e-05
2.7878e-05
2.78356e-05
2.7825e-05
2.77827e-05
2.77721e-05
2.77509e-05
2.77192e-05
2.77086e-05
2.76662e-05
2.76768e-05
2.76662e-05
2.76344e-05
2.76344e-05
2.76133e-05
2.76027e-05
2.75921e-05
2.75815e-05
2.75709e-05
2.75815e-05
2.75709e-05
2.75815e-05
2.75921e-05
2.75815e-05
2.75815e-05
2.75815e-05
2.76133e-05
2.7645e-05
2.76133e-05
2.76344e-05
2.76556e-05
2.76768e-05
2.77086e-05
2.77192e-05
2.77509e-05
2.77509e-05
2.77827e-05
2.78039e-05
2.7825e-05
2.78356e-05
2.78674e-05
2.78991e-05
2.79309e-05
2.79733e-05
2.79944e-05
2.80262e-05
2.8058e-05
2.81003e-05
2.81427e-05
2.81533e-05
2.81638e-05
2.81956e-05
2.82168e-05
2.82803e-05
2.82909e-05
2.83121e-05
2.83438e-05
2.83756e-05
2.83862e-05
2.84285e-05
2.84497e-05
2.84391e-05
2.84497e-05
2.84603e-05
2.84815e-05
2.84921e-05
2.85132e-05
2.85132e-05
2.85238e-05
2.85132e-05
2.85238e-05
2.90956e-05
2.90956e-05
2.90744e-05
2.90638e-05
2.90638e-05
2.9085e-05
2.90321e-05
2.90532e-05
2.90321e-05
2.90109e-05
2.90003e-05
2.89474e-05
2.89368e-05
2.8905e-05
2.88944e-05
2.88521e-05
2.88521e-05
2.88097e-05
2.87885e-05
2.87779e-05
2.87462e-05
2.87356e-05
2.86827e-05
2.86297e-05
2.86085e-05
2.85768e-05
2.8545e-05
2.85344e-05
2.85027e-05
2.84815e-05
2.84497e-05
2.84285e-05
2.83756e-05
2.8365e-05
2.83544e-05
2.83121e-05
2.83015e-05
2.82697e-05
2.82591e-05
2.82168e-05
2.82062e-05
2.81744e-05
2.81744e-05
2.8185e-05
2.81744e-05
2.81533e-05
2.81427e-05
2.81321e-05
2.81533e-05
2.81533e-05
2.81533e-05
2.81533e-05
2.81427e-05
2.81427e-05
2.81744e-05
2.81744e-05
2.81744e-05
2.82168e-05
2.82168e-05
2.82168e-05
2.82274e-05
2.82591e-05
2.82697e-05
2.83121e-05
2.83333e-05
2.83333e-05
2.8365e-05
2.83862e-05
2.8418e-05
2.84497e-05
2.84497e-05
2.84921e-05
2.85238e-05
2.85662e-05
2.85979e-05
2.86297e-05
2.86509e-05
2.86932e-05
2.87356e-05
2.87674e-05
2.87885e-05
2.88203e-05
2.88097e-05
2.88521e-05
2.88838e-05
2.89156e-05
2.89262e-05
2.89579e-05
2.89897e-05
2.90215e-05
2.90321e-05
2.90215e-05
2.90638e-05
2.90638e-05
2.90956e-05
2.90956e-05
2.90956e-05
2.91168e-05
2.90956e-05
2.91062e-05
2.95509e-05
2.95509e-05
2.95403e-05
2.95191e-05
2.95403e-05
2.95403e-05
2.95403e-05
2.95191e-05
2.94979e-05
2.94767e-05
2.94556e-05
2.94238e-05
2.9392e-05
2.93815e-05
2.93603e-05
2.93603e-05
2.93285e-05
2.92756e-05
2.92438e-05
2.92332e-05
2.92015e-05
2.91803e-05
2.91591e-05
2.91062e-05
2.90744e-05
2.90426e-05
2.90003e-05
2.89791e-05
2.89685e-05
2.89262e-05
2.8905e-05
2.88626e-05
2.88521e-05
2.88415e-05
2.87991e-05
2.87779e-05
2.87568e-05
2.87462e-05
2.87144e-05
2.86615e-05
2.86403e-05
2.86403e-05
2.86297e-05
2.86509e-05
2.86297e-05
2.86297e-05
2.86297e-05
2.85979e-05
2.85662e-05
2.86085e-05
2.86085e-05
2.86085e-05
2.86191e-05
2.86191e-05
2.86509e-05
2.86403e-05
2.86509e-05
2.86615e-05
2.86721e-05
2.86615e-05
2.86827e-05
2.87144e-05
2.87568e-05
2.87779e-05
2.87674e-05
2.87991e-05
2.88415e-05
2.88309e-05
2.88626e-05
2.88944e-05
2.89368e-05
2.89474e-05
2.89897e-05
2.90215e-05
2.90744e-05
2.91062e-05
2.91273e-05
2.91485e-05
2.91909e-05
2.92438e-05
2.92332e-05
2.92756e-05
2.92968e-05
2.93179e-05
2.93603e-05
2.93815e-05
2.9392e-05
2.94344e-05
2.94344e-05
2.94662e-05
2.94873e-05
2.95403e-05
2.95403e-05
2.95509e-05
2.9572e-05
2.9572e-05
2.9572e-05
2.9572e-05
2.9572e-05
2.95826e-05
2.99109e-05
2.99109e-05
2.99003e-05
2.99109e-05
2.98897e-05
2.99003e-05
2.98897e-05
2.98791e-05
2.98473e-05
2.98367e-05
2.9805e-05
2.97838e-05
2.97414e-05
2.97414e-05
2.97097e-05
2.96673e-05
2.96462e-05
2.9625e-05
2.95932e-05
2.95614e-05
2.95614e-05
2.95191e-05
2.94979e-05
2.94662e-05
2.94344e-05
2.94132e-05
2.93815e-05
2.93497e-05
2.93073e-05
2.9265e-05
2.92226e-05
2.92332e-05
2.92015e-05
2.91697e-05
2.91273e-05
2.91273e-05
2.91062e-05
2.90532e-05
2.90321e-05
2.90426e-05
2.90215e-05
2.90215e-05
2.90109e-05
2.89685e-05
2.90003e-05
2.90003e-05
2.89791e-05
2.89685e-05
2.89579e-05
2.89368e-05
2.89368e-05
2.89474e-05
2.89579e-05
2.89579e-05
2.89474e-05
2.89685e-05
2.89685e-05
2.90003e-05
2.90003e-05
2.90215e-05
2.90321e-05
2.90321e-05
2.90638e-05
2.9085e-05
2.91168e-05
2.91697e-05
2.91909e-05
2.9212e-05
2.92226e-05
2.92332e-05
2.92862e-05
2.93179e-05
2.93497e-05
2.94026e-05
2.94238e-05
2.94556e-05
2.94873e-05
2.95085e-05
2.95403e-05
2.95403e-05
2.95932e-05
2.9625e-05
2.96462e-05
2.96779e-05
2.96991e-05
2.96885e-05
2.9752e-05
2.9752e-05
2.97944e-05
2.98156e-05
2.98685e-05
2.98791e-05
2.98791e-05
2.99109e-05
2.99214e-05
2.99003e-05
2.99109e-05
2.99214e-05
2.9932e-05
2.99109e-05
3.0165e-05
3.01544e-05
3.01438e-05
3.01438e-05
3.01544e-05
3.00908e-05
3.01014e-05
3.00803e-05
3.00591e-05
3.00379e-05
3.00273e-05
3.00061e-05
2.9985e-05
2.99638e-05
2.99638e-05
2.99214e-05
2.98897e-05
2.98579e-05
2.98579e-05
2.98156e-05
2.97732e-05
2.97414e-05
2.97414e-05
2.96991e-05
2.96673e-05
2.96356e-05
2.96038e-05
2.95826e-05
2.95403e-05
2.95191e-05
2.94979e-05
2.94556e-05
2.94344e-05
2.94026e-05
2.93815e-05
2.93497e-05
2.93285e-05
2.92968e-05
2.92862e-05
2.9265e-05
2.92438e-05
2.92226e-05
2.92332e-05
2.92226e-05
2.91909e-05
2.91909e-05
2.91803e-05
2.92226e-05
2.91909e-05
2.91803e-05
2.91909e-05
2.91803e-05
2.91803e-05
2.91909e-05
2.91803e-05
2.92015e-05
2.92226e-05
2.92226e-05
2.92438e-05
2.9265e-05
2.92862e-05
2.92756e-05
2.92968e-05
2.93391e-05
2.93709e-05
2.93815e-05
2.94132e-05
2.94662e-05
2.94979e-05
2.95085e-05
2.95297e-05
2.95932e-05
2.96144e-05
2.9625e-05
2.96462e-05
2.96779e-05
2.97203e-05
2.9752e-05
2.97838e-05
2.98156e-05
2.98685e-05
2.98685e-05
2.99003e-05
2.9932e-05
2.9932e-05
2.99744e-05
2.9985e-05
3.00061e-05
3.00379e-05
3.00591e-05
3.00803e-05
3.00908e-05
3.01332e-05
3.01544e-05
3.01332e-05
3.01544e-05
3.0165e-05
3.01861e-05
3.01861e-05
3.01861e-05
3.02603e-05
3.02497e-05
3.02708e-05
3.02603e-05
3.02285e-05
3.02285e-05
3.02073e-05
3.01861e-05
3.01967e-05
3.01755e-05
3.0165e-05
3.01438e-05
3.01332e-05
3.0112e-05
3.00803e-05
3.00591e-05
3.00379e-05
3.00061e-05
2.99744e-05
2.9932e-05
2.99109e-05
2.98791e-05
2.98367e-05
2.98156e-05
2.9805e-05
2.97732e-05
2.97203e-05
2.96991e-05
2.96567e-05
2.9625e-05
2.96144e-05
2.95826e-05
2.95614e-05
2.95191e-05
2.95085e-05
2.94662e-05
2.94344e-05
2.94344e-05
2.94026e-05
2.94026e-05
2.9392e-05
2.93603e-05
2.93391e-05
2.93497e-05
2.93285e-05
2.93179e-05
2.93179e-05
2.93073e-05
2.93073e-05
2.93073e-05
2.92968e-05
2.92968e-05
2.93179e-05
2.93179e-05
2.93391e-05
2.93285e-05
2.93391e-05
2.93391e-05
2.93603e-05
2.93603e-05
2.93815e-05
2.94132e-05
2.9445e-05
2.94556e-05
2.94767e-05
2.95085e-05
2.95403e-05