/*--------------------------------*- C++ -*----------------------------------*\
  =========                 |
  \\      /  F ield         | OpenFOAM: The Open Source CFD Toolbox
   \\    /   O peration     | Website:  https://openfoam.org
    \\  /    A nd           | Version:  7
     \\/     M anipulation  |
\*---------------------------------------------------------------------------*/
FoamFile
{
    version     2.0;
    format      ascii;
    class       volScalarField;
    location    "0.025";
    object      gradTx;
}
// * * * * * * * * * * * * * * * * * * * * * * * * * * * * * * * * * * * * * //

dimensions      [0 -1 0 1 0 0 0];

internalField   nonuniform List<scalar> 
10000
(
0.00374683
0.0112303
0.0186825
0.0260822
0.0334088
0.0406412
0.0477581
0.0547382
0.06156
0.0682021
0.0746427
0.0808602
0.0868327
0.0925384
0.0979556
0.103063
0.107838
0.112261
0.116311
0.119967
0.123211
0.126023
0.128387
0.130285
0.131701
0.132622
0.133034
0.132925
0.132285
0.131104
0.129376
0.127095
0.124258
0.120863
0.116916
0.112421
0.107391
0.10184
0.0957876
0.0892568
0.0822733
0.0748651
0.0670622
0.0588975
0.0504081
0.0416363
0.0326293
0.0234381
0.0141153
0.00471398
-0.00471348
-0.0141148
-0.0234376
-0.0326288
-0.0416358
-0.0504077
-0.058897
-0.0670617
-0.0748646
-0.0822728
-0.0892563
-0.0957871
-0.101839
-0.10739
-0.112421
-0.116915
-0.120863
-0.124257
-0.127095
-0.129376
-0.131104
-0.132285
-0.132925
-0.133034
-0.132622
-0.131701
-0.130285
-0.128387
-0.126023
-0.123211
-0.119967
-0.116311
-0.112261
-0.107838
-0.103063
-0.0979555
-0.0925383
-0.0868326
-0.0808601
-0.0746427
-0.068202
-0.0615599
-0.0547381
-0.0477581
-0.0406412
-0.0334089
-0.0260822
-0.0186822
-0.0112301
-0.0037468
0.00376037
0.0112711
0.0187507
0.0261776
0.0335314
0.040791
0.0479351
0.0549424
0.0617914
0.0684605
0.0749281
0.0811722
0.0871712
0.092903
0.0983459
0.103478
0.108278
0.112725
0.116797
0.120476
0.12374
0.126572
0.128953
0.130867
0.132299
0.133233
0.133656
0.133557
0.132925
0.13175
0.130026
0.127745
0.124905
0.121505
0.117547
0.113038
0.107988
0.102414
0.096334
0.0897726
0.0827559
0.0753121
0.0674707
0.0592631
0.0507255
0.0419002
0.032836
0.0235857
0.0142037
0.00474335
-0.00474283
-0.0142031
-0.0235852
-0.0328355
-0.0418998
-0.050725
-0.0592626
-0.0674702
-0.0753117
-0.0827554
-0.0897721
-0.0963335
-0.102413
-0.107988
-0.113038
-0.117547
-0.121505
-0.124905
-0.127745
-0.130025
-0.13175
-0.132925
-0.133557
-0.133656
-0.133233
-0.132299
-0.130867
-0.128953
-0.126572
-0.12374
-0.120476
-0.116798
-0.112725
-0.108278
-0.103478
-0.0983459
-0.092903
-0.0871711
-0.0811721
-0.074928
-0.0684604
-0.0617913
-0.0549423
-0.0479351
-0.040791
-0.0335315
-0.0261777
-0.0187506
-0.0112709
-0.00376029
0.00378761
0.0113527
0.0188866
0.0263683
0.0337766
0.0410906
0.0482892
0.0553509
0.0622543
0.0689775
0.075499
0.0817968
0.0878487
0.0936329
0.0991273
0.10431
0.109159
0.113653
0.117772
0.121494
0.1248
0.12767
0.130088
0.132035
0.133496
0.134456
0.134903
0.134823
0.134207
0.133044
0.131327
0.129049
0.126205
0.122793
0.118815
0.114277
0.109188
0.103566
0.09743
0.0908065
0.0837235
0.0762093
0.0682919
0.0599996
0.0513654
0.0424319
0.0332513
0.0238813
0.0143799
0.00480183
-0.00480132
-0.0143794
-0.0238808
-0.0332508
-0.0424315
-0.051365
-0.0599992
-0.0682915
-0.0762088
-0.0837229
-0.090806
-0.0974295
-0.103565
-0.109188
-0.114276
-0.118815
-0.122793
-0.126205
-0.129049
-0.131327
-0.133044
-0.134207
-0.134823
-0.134903
-0.134456
-0.133496
-0.132035
-0.130088
-0.12767
-0.1248
-0.121494
-0.117772
-0.113654
-0.109159
-0.10431
-0.0991273
-0.0936329
-0.0878487
-0.0817966
-0.0754989
-0.0689775
-0.0622542
-0.0553508
-0.0482892
-0.0410906
-0.0337765
-0.0263682
-0.0188868
-0.0113528
-0.00378766
0.00382858
0.0114753
0.0190908
0.0266542
0.0341444
0.0415402
0.0488206
0.055964
0.0629489
0.0697536
0.076356
0.0827343
0.088866
0.094729
0.100301
0.10556
0.110483
0.115049
0.119236
0.123024
0.126393
0.129322
0.131793
0.13379
0.135296
0.136296
0.136778
0.136728
0.136136
0.134992
0.133286
0.131013
0.128164
0.124736
0.120729
0.116146
0.110999
0.105303
0.0990818
0.0923633
0.0851799
0.0775622
0.069535
0.061119
0.0523397
0.0432395
0.0338784
0.0243245
0.0146424
0.00488863
-0.00488811
-0.0146419
-0.024324
-0.0338779
-0.043239
-0.0523392
-0.0611186
-0.0695346
-0.0775617
-0.0851794
-0.0923628
-0.0990813
-0.105303
-0.110999
-0.116146
-0.120728
-0.124735
-0.128163
-0.131012
-0.133286
-0.134991
-0.136135
-0.136727
-0.136777
-0.136296
-0.135296
-0.13379
-0.131793
-0.129322
-0.126393
-0.123024
-0.119236
-0.115049
-0.110483
-0.10556
-0.100301
-0.0947289
-0.0888659
-0.0827342
-0.076356
-0.0697535
-0.0629489
-0.0559639
-0.0488206
-0.0415402
-0.0341443
-0.0266541
-0.0190909
-0.0114754
-0.00382857
0.00388307
0.0116388
0.0193632
0.0270356
0.0346349
0.0421399
0.0495294
0.056782
0.0638759
0.0707892
0.0775
0.0839858
0.0902243
0.0961928
0.101869
0.107229
0.112252
0.116914
0.121194
0.125071
0.128523
0.131531
0.134075
0.136138
0.137704
0.138758
0.139286
0.139276
0.138717
0.137599
0.135911
0.133646
0.130793
0.127346
0.123302
0.118662
0.113436
0.107639
0.101299
0.0944484
0.0871287
0.079377
0.0712139
0.0626426
0.0536699
0.0443366
0.034721
0.024912
0.0149864
0.00500159
-0.00500108
-0.0149859
-0.0249115
-0.0347205
-0.0443362
-0.0536694
-0.0626422
-0.0712135
-0.0793765
-0.0871282
-0.0944479
-0.101298
-0.107639
-0.113435
-0.118662
-0.123302
-0.127346
-0.130793
-0.133645
-0.135911
-0.137598
-0.138716
-0.139275
-0.139285
-0.138757
-0.137704
-0.136138
-0.134075
-0.131531
-0.128523
-0.125071
-0.121195
-0.116914
-0.112252
-0.107229
-0.101869
-0.0961927
-0.0902242
-0.0839858
-0.0774999
-0.0707891
-0.0638758
-0.0567819
-0.0495294
-0.0421399
-0.0346349
-0.0270355
-0.0193632
-0.0116388
-0.00388306
0.00395118
0.0118431
0.0197038
0.0275125
0.0352482
0.0428898
0.0504159
0.0578051
0.0650355
0.0720852
0.0789317
0.0855526
0.0919251
0.0980262
0.103833
0.109322
0.114469
0.119253
0.123651
0.127639
0.131197
0.134303
0.136939
0.139086
0.140727
0.141848
0.142434
0.142474
0.141958
0.140873
0.139211
0.13696
0.134108
0.130643
0.126557
0.121847
0.116519
0.110592
0.104094
0.097066
0.0895675
0.0816559
0.073348
0.0646087
0.0553957
0.0457452
0.0357797
0.0256321
0.0153995
0.00513566
-0.00513512
-0.0153989
-0.0256316
-0.0357792
-0.0457447
-0.0553952
-0.0646083
-0.0733476
-0.0816554
-0.0895671
-0.0970656
-0.104093
-0.110592
-0.116519
-0.121847
-0.126557
-0.130643
-0.134108
-0.13696
-0.139211
-0.140873
-0.141957
-0.142474
-0.142434
-0.141847
-0.140727
-0.139086
-0.136939
-0.134303
-0.131197
-0.127639
-0.123651
-0.119253
-0.114469
-0.109322
-0.103833
-0.0980262
-0.0919251
-0.0855526
-0.0789316
-0.0720851
-0.0650355
-0.057805
-0.0504158
-0.0428898
-0.0352482
-0.0275124
-0.0197037
-0.011843
-0.00395117
0.00403287
0.0120882
0.0201125
0.0280848
0.0359844
0.04379
0.0514803
0.0590338
0.0664285
0.0736422
0.0806523
0.0874362
0.0939704
0.100232
0.106196
0.11184
0.11714
0.122071
0.12661
0.130735
0.134421
0.137647
0.140394
0.142642
0.144374
0.145575
0.146231
0.146332
0.145867
0.144826
0.143198
0.140971
0.138128
0.134651
0.130522
0.125731
0.12028
0.114189
0.107487
0.100218
0.0924777
0.0843836
0.0759605
0.0670899
0.0575941
0.0474976
0.0370429
0.0264536
0.0158534
0.00527991
-0.0052794
-0.0158529
-0.0264531
-0.0370424
-0.0474972
-0.0575936
-0.0670895
-0.0759601
-0.0843832
-0.0924773
-0.100217
-0.107487
-0.114189
-0.12028
-0.12573
-0.130521
-0.13465
-0.138127
-0.14097
-0.143198
-0.144825
-0.145866
-0.146332
-0.146231
-0.145575
-0.144374
-0.142642
-0.140394
-0.137647
-0.134421
-0.130735
-0.12661
-0.122071
-0.11714
-0.11184
-0.106196
-0.100232
-0.0939703
-0.0874361
-0.0806523
-0.0736421
-0.0664284
-0.0590337
-0.0514802
-0.04379
-0.0359845
-0.0280848
-0.0201124
-0.0120882
-0.00403285
0.00412817
0.0123742
0.0205893
0.0287527
0.0368435
0.0448407
0.0527229
0.0604684
0.0680553
0.0754611
0.082663
0.0896379
0.0963622
0.102812
0.108962
0.114789
0.120268
0.125374
0.130081
0.134366
0.138204
0.141573
0.144451
0.146818
0.148656
0.149951
0.150688
0.150858
0.150453
0.149464
0.147882
0.145692
0.142874
0.139399
0.135235
0.130356
0.124759
0.118471
0.111517
0.103903
0.0958004
0.0874932
0.0790678
0.0702376
0.0604283
0.0496374
0.0384635
0.0273021
0.0162904
0.00541325
-0.00541271
-0.0162898
-0.0273016
-0.038463
-0.0496369
-0.0604279
-0.0702372
-0.0790673
-0.0874927
-0.0958
-0.103903
-0.111516
-0.118471
-0.124759
-0.130356
-0.135234
-0.139398
-0.142874
-0.145692
-0.147882
-0.149464
-0.150453
-0.150858
-0.150688
-0.149951
-0.148656
-0.146818
-0.144451
-0.141573
-0.138204
-0.134366
-0.130081
-0.125374
-0.120268
-0.11479
-0.108962
-0.102812
-0.0963621
-0.0896378
-0.0826629
-0.075461
-0.0680552
-0.0604684
-0.0527228
-0.0448406
-0.0368435
-0.0287527
-0.0205892
-0.0123742
-0.00412816
0.00423707
0.0127009
0.0211341
0.0295159
0.0378255
0.0460418
0.0541437
0.0621093
0.0699164
0.0775427
0.0849649
0.0921595
0.0991026
0.105769
0.112135
0.118174
0.12386
0.129167
0.13407
0.138542
0.142558
0.146092
0.149122
0.151627
0.153587
0.154988
0.155816
0.156063
0.155724
0.154796
0.153271
0.151138
0.14837
0.144926
0.140748
0.135784
0.130007
0.123493
0.116274
0.108142
0.0993858
0.0907737
0.0826271
0.074406
0.0642797
0.0521894
0.0398942
0.0280172
0.0166024
0.00549865
-0.0054981
-0.0166018
-0.0280167
-0.0398936
-0.0521889
-0.0642792
-0.0744055
-0.0826266
-0.0907732
-0.0993854
-0.108141
-0.116274
-0.123493
-0.130006
-0.135783
-0.140747
-0.144925
-0.14837
-0.151138
-0.153271
-0.154795
-0.155724
-0.156063
-0.155816
-0.154987
-0.153587
-0.151626
-0.149122
-0.146092
-0.142557
-0.138542
-0.13407
-0.129167
-0.12386
-0.118174
-0.112135
-0.105769
-0.0991025
-0.0921595
-0.0849648
-0.0775426
-0.0699164
-0.0621092
-0.0541436
-0.0460418
-0.0378255
-0.0295159
-0.0211341
-0.012701
-0.00423707
0.00435954
0.0130684
0.0217468
0.0303743
0.0389301
0.0473933
0.0557427
0.0639564
0.0720123
0.0798876
0.0875591
0.0950027
0.102194
0.109107
0.115717
0.121998
0.127921
0.13346
0.138587
0.143274
0.147493
0.151218
0.154422
0.157084
0.159182
0.160702
0.161629
0.161958
0.161688
0.160823
0.159368
0.157315
0.154636
0.151276
0.147133
0.142106
0.136068
0.129295
0.122014
0.113068
0.102886
0.0936414
0.0863082
0.0805213
0.0701307
0.0549754
0.0409291
0.0282862
0.0166129
0.00548026
-0.0054797
-0.0166123
-0.0282857
-0.0409286
-0.0549749
-0.0701302
-0.0805209
-0.0863078
-0.093641
-0.102885
-0.113067
-0.122014
-0.129295
-0.136068
-0.142106
-0.147133
-0.151276
-0.154636
-0.157315
-0.159368
-0.160823
-0.161688
-0.161958
-0.161629
-0.160701
-0.159182
-0.157084
-0.154422
-0.151218
-0.147493
-0.143274
-0.138587
-0.13346
-0.127921
-0.121998
-0.115717
-0.109107
-0.102194
-0.0950026
-0.087559
-0.0798876
-0.0720122
-0.0639563
-0.0557426
-0.0473933
-0.0389301
-0.0303743
-0.0217468
-0.0130684
-0.00435955
0.00449552
0.0134764
0.0224271
0.0313276
0.0401571
0.0488948
0.0575196
0.0660098
0.074343
0.0824964
0.0904464
0.0981687
0.105638
0.112829
0.119714
0.126267
0.132458
0.138259
0.143641
0.148573
0.153025
0.156967
0.16037
0.16321
0.165463
0.167113
0.168146
0.168557
0.168349
0.167543
0.16616
0.164214
0.161678
0.1585
0.154489
0.149522
0.142944
0.13568
0.129489
0.119292
0.105506
0.0946505
0.0884904
0.0912826
0.0807825
0.0566818
0.0405831
0.0276015
0.0160921
0.00529233
-0.00529182
-0.0160915
-0.027601
-0.0405826
-0.0566813
-0.080782
-0.0912822
-0.0884899
-0.0946501
-0.105506
-0.119292
-0.129488
-0.135679
-0.142943
-0.149522
-0.154489
-0.158499
-0.161677
-0.164214
-0.16616
-0.167543
-0.168349
-0.168556
-0.168146
-0.167113
-0.165463
-0.16321
-0.16037
-0.156967
-0.153025
-0.148573
-0.143641
-0.138259
-0.132458
-0.126267
-0.119714
-0.112829
-0.105638
-0.0981686
-0.0904464
-0.0824964
-0.0743429
-0.0660097
-0.0575195
-0.0488948
-0.0401571
-0.0313276
-0.0224272
-0.0134764
-0.00449552
0.00464491
0.0139247
0.0231748
0.0323753
0.0415058
0.0505457
0.0594739
0.068269
0.0769084
0.0853692
0.0936275
0.101659
0.109437
0.116936
0.124128
0.130985
0.137477
0.143574
0.149244
0.154454
0.15917
0.163359
0.166988
0.170028
0.172453
0.174247
0.175392
0.175877
0.175711
0.17494
0.173616
0.171801
0.169454
0.166646
0.162888
0.158634
0.150583
0.141065
0.141038
0.12917
0.105253
0.0910159
0.0817669
0.0753798
0.0650725
0.050415
0.0371419
0.0254599
0.0148705
0.0048919
-0.00489138
-0.01487
-0.0254593
-0.0371413
-0.0504145
-0.065072
-0.0753794
-0.0817664
-0.0910154
-0.105253
-0.12917
-0.141038
-0.141064
-0.150583
-0.158633
-0.162888
-0.166646
-0.169454
-0.1718
-0.173616
-0.17494
-0.175711
-0.175877
-0.175392
-0.174246
-0.172453
-0.170027
-0.166988
-0.163359
-0.15917
-0.154454
-0.149244
-0.143574
-0.137477
-0.130985
-0.124128
-0.116936
-0.109437
-0.101659
-0.0936274
-0.0853691
-0.0769084
-0.0682689
-0.0594739
-0.0505456
-0.0415058
-0.0323753
-0.0231748
-0.0139247
-0.00464489
0.00480759
0.014413
0.0239892
0.0335167
0.0429755
0.0523451
0.0616048
0.0707332
0.0797078
0.0885056
0.0971025
0.105473
0.113592
0.121432
0.128964
0.136159
0.142985
0.149412
0.155405
0.160929
0.165946
0.170416
0.174301
0.177566
0.180183
0.182135
0.183403
0.183954
0.183782
0.182993
0.181662
0.180015
0.177787
0.175833
0.17187
0.171625
0.159768
0.137032
0.124498
0.111162
0.0953767
0.0824423
0.0722256
0.0634366
0.0537462
0.0427908
0.0321299
0.0222399
0.0130469
0.00429896
-0.00429843
-0.0130463
-0.0222394
-0.0321293
-0.0427903
-0.0537457
-0.0634361
-0.0722251
-0.0824418
-0.0953763
-0.111162
-0.124498
-0.137032
-0.159768
-0.171625
-0.17187
-0.175833
-0.177787
-0.180015
-0.181661
-0.182993
-0.183782
-0.183954
-0.183403
-0.182135
-0.180183
-0.177566
-0.174301
-0.170416
-0.165946
-0.160929
-0.155405
-0.149412
-0.142986
-0.136159
-0.128964
-0.121432
-0.113592
-0.105473
-0.0971024
-0.0885055
-0.0797077
-0.0707332
-0.0616048
-0.0523451
-0.0429755
-0.0335167
-0.0239892
-0.014413
-0.00480757
0.00498341
0.0149408
0.0248696
0.0347509
0.0445649
0.0542918
0.063911
0.0734011
0.0827401
0.0919047
0.100871
0.109613
0.118105
0.126318
0.134223
0.14179
0.148988
0.155782
0.162137
0.168014
0.173372
0.178165
0.182342
0.185859
0.188686
0.190815
0.192239
0.192859
0.192573
0.19169
0.190122
0.188907
0.185939
0.187121
0.177221
0.156313
0.139911
0.122868
0.108825
0.0956636
0.0827011
0.0711971
0.0612974
0.0524301
0.0437148
0.0348965
0.0263655
0.0183363
0.0107859
0.0035581
-0.00355756
-0.0107853
-0.0183358
-0.026365
-0.034896
-0.0437143
-0.0524296
-0.0612969
-0.0711967
-0.0827007
-0.0956632
-0.108825
-0.122868
-0.139911
-0.156313
-0.177221
-0.187121
-0.185939
-0.188907
-0.190121
-0.19169
-0.192573
-0.192859
-0.192239
-0.190815
-0.188686
-0.185859
-0.182342
-0.178165
-0.173372
-0.168014
-0.162137
-0.155782
-0.148988
-0.141791
-0.134223
-0.126318
-0.118105
-0.109613
-0.100871
-0.0919046
-0.08274
-0.0734011
-0.0639109
-0.0542918
-0.0445649
-0.0347509
-0.0248696
-0.0149407
-0.00498341
0.00517218
0.0155075
0.0258152
0.0360766
0.0462727
0.056384
0.0663904
0.0762709
0.0860034
0.095565
0.104931
0.114077
0.122974
0.131594
0.139908
0.147884
0.155489
0.162688
0.169446
0.175722
0.18147
0.186635
0.191151
0.194952
0.197995
0.200309
0.201984
0.202777
0.202066
0.201174
0.198327
0.199651
0.190034
0.169583
0.153666
0.136575
0.120766
0.105772
0.0923295
0.0800195
0.0686149
0.0583898
0.0493736
0.0413035
0.0338132
0.0267365
0.0201162
0.0139658
0.00820919
0.00270743
-0.00270689
-0.00820864
-0.0139652
-0.0201156
-0.026736
-0.0338127
-0.041303
-0.0493731
-0.0583894
-0.0686145
-0.0800191
-0.0923291
-0.105771
-0.120766
-0.136575
-0.153666
-0.169582
-0.190034
-0.19965
-0.198327
-0.201174
-0.202066
-0.202777
-0.201984
-0.200309
-0.197994
-0.194952
-0.191151
-0.186635
-0.18147
-0.175722
-0.169446
-0.162688
-0.155489
-0.147884
-0.139908
-0.131595
-0.122974
-0.114077
-0.104931
-0.095565
-0.0860034
-0.0762708
-0.0663904
-0.056384
-0.0462727
-0.0360766
-0.0258151
-0.0155075
-0.00517222
0.00537374
0.0161125
0.0268247
0.0374922
0.0480968
0.0586195
0.0690406
0.0793397
0.0894951
0.0994839
0.109282
0.118863
0.128199
0.137262
0.14602
0.154441
0.162491
0.170136
0.17734
0.184063
0.190258
0.195861
0.200784
0.204911
0.20814
0.210551
0.21272
0.214303
0.211844
0.212715
0.202462
0.181431
0.165056
0.147594
0.131364
0.115628
0.100874
0.0871817
0.0747558
0.0635182
0.053392
0.0444112
0.0365363
0.029625
0.0235211
0.0181392
0.0134113
0.00921173
0.00538377
0.00177138
-0.00177084
-0.00538322
-0.00921122
-0.0134108
-0.0181387
-0.0235206
-0.0296245
-0.0365358
-0.0444107
-0.0533916
-0.0635178
-0.0747554
-0.0871813
-0.100873
-0.115627
-0.131363
-0.147594
-0.165055
-0.181431
-0.202461
-0.212715
-0.211844
-0.214303
-0.21272
-0.210551
-0.20814
-0.204911
-0.200784
-0.195861
-0.190258
-0.184063
-0.17734
-0.170136
-0.162491
-0.154441
-0.14602
-0.137262
-0.128199
-0.118863
-0.109282
-0.0994839
-0.0894951
-0.0793397
-0.0690406
-0.0586194
-0.0480968
-0.0374922
-0.0268246
-0.0161125
-0.00537377
0.00558773
0.0167549
0.0278966
0.0389958
0.0500346
0.0609952
0.0718583
0.0826042
0.0932115
0.103658
0.113919
0.123969
0.133779
0.14332
0.152559
0.161462
0.169996
0.178125
0.185817
0.193037
0.199744
0.205876
0.211322
0.215878
0.219214
0.221142
0.22415
0.229978
0.218397
0.195482
0.177471
0.158646
0.141248
0.124453
0.108639
0.0937626
0.0799785
0.067379
0.0560414
0.045948
0.0370611
0.029359
0.0227635
0.0171629
0.0125267
0.00890365
0.00619007
0.00409466
0.00234789
0.000766861
-0.000766321
-0.00234734
-0.00409414
-0.0061896
-0.00890316
-0.0125262
-0.0171624
-0.0227631
-0.0293586
-0.0370607
-0.0459476
-0.056041
-0.0673786
-0.0799781
-0.0937622
-0.108638
-0.124453
-0.141248
-0.158645
-0.17747
-0.195481
-0.218397
-0.229978
-0.22415
-0.221142
-0.219214
-0.215878
-0.211322
-0.205876
-0.199744
-0.193037
-0.185817
-0.178125
-0.169996
-0.161462
-0.152559
-0.14332
-0.133779
-0.123969
-0.113919
-0.103658
-0.0932115
-0.0826042
-0.0718583
-0.0609952
-0.0500347
-0.0389957
-0.0278966
-0.0167549
-0.00558779
0.00581382
0.0174335
0.0290293
0.0405848
0.0520833
0.0635075
0.0748394
0.0860596
0.0971479
0.108082
0.118838
0.12939
0.13971
0.149766
0.159523
0.168948
0.178003
0.186653
0.19487
0.20263
0.209913
0.216686
0.22286
0.228175
0.231805
0.230764
0.232867
0.223169
0.196386
0.173439
0.153383
0.134515
0.116914
0.1004
0.0850386
0.0708633
0.0579503
0.0463607
0.0361237
0.0272073
0.0195768
0.0132275
0.00801887
0.00375573
0.000535113
-0.00122872
-0.00163961
-0.00136425
-0.000849712
-0.000284158
0.000284698
0.000850241
0.00136475
0.00164009
0.00122921
-0.000534626
-0.00375531
-0.00801846
-0.0132271
-0.0195764
-0.0272069
-0.0361233
-0.0463603
-0.05795
-0.0708629
-0.0850383
-0.1004
-0.116914
-0.134515
-0.153383
-0.173439
-0.196386
-0.223169
-0.232867
-0.230763
-0.231804
-0.228175
-0.222859
-0.216686
-0.209913
-0.20263
-0.19487
-0.186653
-0.178003
-0.168948
-0.159524
-0.149766
-0.13971
-0.12939
-0.118838
-0.108082
-0.0971479
-0.0860596
-0.0748394
-0.0635076
-0.0520834
-0.0405848
-0.0290293
-0.0174336
-0.00581384
0.00605158
0.0181473
0.0302207
0.0422565
0.0542391
0.0661521
0.0779786
0.0897004
0.101298
0.11275
0.124033
0.135122
0.145987
0.156596
0.166913
0.176899
0.186513
0.195717
0.204484
0.212807
0.220702
0.228205
0.235366
0.24227
0.249176
0.237348
0.213493
0.193548
0.170635
0.148594
0.128189
0.109191
0.0915606
0.0752572
0.0603076
0.0467509
0.0346428
0.0240286
0.0149193
0.00721012
0.000836614
-0.00402331
-0.00765325
-0.0106793
-0.0129016
-0.0127048
-0.0101486
-0.00705745
-0.00409543
-0.00133755
0.00133806
0.00409594
0.00705795
0.0101491
0.0127053
0.012902
0.0106797
0.00765366
0.00402376
-0.00083618
-0.00720978
-0.0149189
-0.0240282
-0.0346425
-0.0467505
-0.0603072
-0.0752569
-0.0915603
-0.10919
-0.128188
-0.148594
-0.170634
-0.193548
-0.213493
-0.237348
-0.249176
-0.24227
-0.235366
-0.228205
-0.220702
-0.212807
-0.204484
-0.195717
-0.186513
-0.176899
-0.166913
-0.156596
-0.145987
-0.135122
-0.124033
-0.11275
-0.101298
-0.0897004
-0.0779786
-0.0661521
-0.0542391
-0.0422565
-0.0302207
-0.0181473
-0.0060516
0.00630049
0.0188947
0.0314683
0.0440074
0.0564975
0.0689235
0.0812698
0.0935193
0.105654
0.117653
0.129495
0.141154
0.152603
0.163806
0.174727
0.185319
0.195533
0.20532
0.214649
0.223521
0.231993
0.240175
0.248242
0.256474
0.245394
0.216067
0.190309
0.166989
0.144097
0.122192
0.101659
0.0825642
0.0649389
0.0488126
0.03423
0.0212307
0.00987709
0.000222177
-0.00765901
-0.0141003
-0.0193986
-0.0224887
-0.0239169
-0.0259083
-0.02875
-0.0265349
-0.0191886
-0.0126185
-0.00713523
-0.00230807
0.00230859
0.00713572
0.012619
0.0191891
0.0265354
0.0287504
0.0259087
0.0239173
0.0224892
0.019399
0.0141007
0.00765938
-0.000221796
-0.00987672
-0.0212303
-0.0342296
-0.0488122
-0.0649385
-0.0825638
-0.101658
-0.122192
-0.144096
-0.166989
-0.190309
-0.216067
-0.245394
-0.256473
-0.248241
-0.240175
-0.231993
-0.223521
-0.214648
-0.20532
-0.195533
-0.185319
-0.174727
-0.163806
-0.152603
-0.141155
-0.129495
-0.117653
-0.105654
-0.0935194
-0.0812698
-0.0689235
-0.0564975
-0.0440074
-0.0314683
-0.0188947
-0.00630051
0.00656006
0.019674
0.0327694
0.0458336
0.0588536
0.0718157
0.0847056
0.0975079
0.110206
0.122781
0.135213
0.147478
0.159547
0.171389
0.182962
0.194214
0.20508
0.215487
0.225375
0.234743
0.243683
0.252372
0.261063
0.2501
0.219968
0.191316
0.164779
0.140088
0.116647
0.0944881
0.0737526
0.0545239
0.0368673
0.0208671
0.00660632
-0.00590355
-0.0165604
-0.0253356
-0.0316588
-0.0365388
-0.0418305
-0.0426072
-0.0396103
-0.0402824
-0.0496528
-0.0454953
-0.027451
-0.0170919
-0.00951819
-0.00306792
0.00306841
0.00951869
0.0170924
0.0274515
0.0454958
0.0496533
0.0402828
0.0396107
0.0426076
0.0418309
0.0365392
0.0316592
0.025336
0.0165608
0.00590388
-0.00660596
-0.0208667
-0.0368669
-0.0545236
-0.0737522
-0.0944877
-0.116647
-0.140087
-0.164779
-0.191315
-0.219967
-0.2501
-0.261063
-0.252372
-0.243683
-0.234743
-0.225375
-0.215487
-0.20508
-0.194214
-0.182962
-0.171389
-0.159547
-0.147478
-0.135213
-0.122781
-0.110206
-0.0975079
-0.0847056
-0.0718156
-0.0588536
-0.0458336
-0.0327694
-0.019674
-0.00656006
0.00682961
0.0204834
0.0341208
0.0477307
0.0613015
0.0748213
0.0882774
0.101656
0.114943
0.128121
0.141172
0.154075
0.166805
0.179331
0.191612
0.203592
0.215188
0.226279
0.236728
0.246502
0.255735
0.264679
0.253648
0.223005
0.193159
0.164541
0.137486
0.11201
0.0879837
0.0654203
0.044392
0.0249574
0.00717823
-0.00878479
-0.0227409
-0.0348684
-0.044862
-0.0533318
-0.0570916
-0.0585586
-0.0687731
-0.0664969
-0.0516335
-0.0459585
-0.0440872
-0.0383466
-0.02803
-0.0187806
-0.010778
-0.00351384
0.00351432
0.0107785
0.0187811
0.0280305
0.0383471
0.0440876
0.0459589
0.051634
0.0664973
0.0687736
0.058559
0.0570919
0.0533322
0.0448624
0.0348688
0.0227413
0.00878514
-0.00717786
-0.024957
-0.0443917
-0.0654199
-0.0879833
-0.112009
-0.137486
-0.16454
-0.193158
-0.223005
-0.253648
-0.264679
-0.255735
-0.246502
-0.236728
-0.226279
-0.215188
-0.203592
-0.191612
-0.179331
-0.166805
-0.154075
-0.141172
-0.128121
-0.114943
-0.101656
-0.0882774
-0.0748213
-0.0613016
-0.0477307
-0.0341208
-0.0204834
-0.00682962
0.00710849
0.0213208
0.0355191
0.0496938
0.0638351
0.0779326
0.0919755
0.105952
0.119851
0.133656
0.147354
0.160927
0.174353
0.187608
0.200658
0.213455
0.225905
0.237816
0.248864
0.258911
0.268187
0.257071
0.225954
0.195213
0.165211
0.136284
0.108688
0.0825466
0.0579146
0.0348667
0.0134798
-0.00622974
-0.0242983
-0.0404209
-0.0538997
-0.065955
-0.0746794
-0.0860338
-0.0848155
-0.0718315
-0.0682108
-0.0629788
-0.0544718
-0.0478344
-0.042395
-0.0357781
-0.0275446
-0.0192242
-0.0113004
-0.00372408
0.00372454
0.0113008
0.0192247
0.027545
0.0357785
0.0423955
0.0478348
0.0544723
0.0629793
0.0682112
0.0718319
0.0848159
0.0860342
0.0746798
0.0659554
0.0539
0.0404212
0.0242987
0.0062301
-0.0134795
-0.0348663
-0.0579141
-0.0825462
-0.108687
-0.136284
-0.165211
-0.195212
-0.225953
-0.257071
-0.268187
-0.25891
-0.248864
-0.237816
-0.225905
-0.213455
-0.200658
-0.187608
-0.174353
-0.160927
-0.147354
-0.133656
-0.11985
-0.105952
-0.0919756
-0.0779326
-0.0638352
-0.0496939
-0.0355191
-0.0213208
-0.00710851
0.00739597
0.0221841
0.0369607
0.0517178
0.0664474
0.0811408
0.0957895
0.110384
0.124914
0.139369
0.153738
0.168006
0.182159
0.19618
0.210054
0.223763
0.237264
0.250323
0.26211
0.272198
0.261142
0.22957
0.197981
0.16677
0.13627
0.106768
0.0784971
0.0516286
0.0263075
0.00269029
-0.0190786
-0.0390337
-0.0577034
-0.0746891
-0.0864753
-0.100371
-0.101869
-0.0913147
-0.0843125
-0.0757473
-0.0692664
-0.0627428
-0.0554468
-0.0485179
-0.0418858
-0.0348308
-0.0271497
-0.0192741
-0.0114767
-0.00380718
0.00380765
0.0114771
0.0192745
0.0271501
0.0348313
0.0418862
0.0485183
0.0554472
0.0627432
0.0692668
0.0757477
0.0843129
0.0913151
0.101869
0.100371
0.0864756
0.0746895
0.0577038
0.039034
0.019079
-0.00268991
-0.0263071
-0.0516282
-0.0784967
-0.106768
-0.13627
-0.166769
-0.19798
-0.22957
-0.261142
-0.272198
-0.26211
-0.250323
-0.237264
-0.223763
-0.210054
-0.19618
-0.182159
-0.168006
-0.153738
-0.139369
-0.124914
-0.110384
-0.0957895
-0.0811408
-0.0664474
-0.0517179
-0.0369607
-0.0221841
-0.00739601
0.0076913
0.0230709
0.0384416
0.0537971
0.069131
0.0844368
0.0997078
0.114937
0.130116
0.145239
0.160298
0.175283
0.190185
0.204993
0.21971
0.234381
0.249169
0.264208
0.277162
0.266741
0.234719
0.202183
0.169718
0.137694
0.106401
0.0760831
0.0469557
0.0192067
-0.0069687
-0.0313073
-0.0534314
-0.0731102
-0.0927865
-0.114157
-0.116946
-0.107193
-0.101121
-0.0930542
-0.0853833
-0.0775888
-0.0703744
-0.0632884
-0.056063
-0.0489122
-0.0418064
-0.0345156
-0.0269539
-0.019249
-0.011527
-0.00383631
0.00383674
0.0115274
0.0192494
0.0269543
0.034516
0.0418068
0.0489126
0.0560634
0.0632888
0.0703748
0.0775892
0.0853837
0.0930546
0.101122
0.107193
0.116946
0.114157
0.0927869
0.0731106
0.0534318
0.0313077
0.00696908
-0.0192063
-0.0469552
-0.0760827
-0.1064
-0.137694
-0.169717
-0.202183
-0.234719
-0.266741
-0.277162
-0.264208
-0.249169
-0.234381
-0.21971
-0.204993
-0.190185
-0.175283
-0.160298
-0.145239
-0.130116
-0.114937
-0.0997078
-0.0844369
-0.069131
-0.0537971
-0.0384416
-0.0230709
-0.00769131
0.00799366
0.0239789
0.0399577
0.0559258
0.0718786
0.0878112
0.103719
0.119597
0.13544
0.151245
0.167009
0.182726
0.198392
0.213992
0.229508
0.244983
0.260929
0.280286
0.275699
0.242989
0.208907
0.174814
0.141092
0.107959
0.0756147
0.0442577
0.0140765
-0.0147571
-0.0420584
-0.0675044
-0.0902218
-0.107188
-0.126182
-0.132217
-0.119974
-0.110347
-0.102384
-0.094412
-0.0865913
-0.0788635
-0.0713663
-0.0639849
-0.0566152
-0.0492711
-0.0419203
-0.0344781
-0.0269067
-0.0192451
-0.0115484
-0.00384852
0.00384893
0.0115488
0.0192455
0.0269071
0.0344785
0.0419207
0.0492715
0.0566156
0.0639853
0.0713667
0.0788639
0.0865917
0.0944124
0.102385
0.110348
0.119974
0.132217
0.126182
0.107189
0.0902221
0.0675047
0.0420587
0.0147575
-0.0140761
-0.0442573
-0.0756143
-0.107959
-0.141091
-0.174813
-0.208906
-0.242989
-0.275699
-0.280286
-0.260929
-0.244983
-0.229508
-0.213992
-0.198392
-0.182726
-0.167009
-0.151245
-0.13544
-0.119597
-0.103719
-0.0878112
-0.0718786
-0.0559258
-0.0399577
-0.0239789
-0.00799367
0.00830218
0.0249054
0.0415049
0.0580983
0.0746824
0.0912543
0.107811
0.124349
0.140867
0.157365
0.173843
0.190306
0.206754
0.223167
0.239445
0.255214
0.269382
0.280414
0.262466
0.220708
0.183193
0.147151
0.111945
0.0774933
0.04389
0.0112952
-0.020121
-0.0502334
-0.0789922
-0.106427
-0.132768
-0.13925
-0.132552
-0.128575
-0.120406
-0.111857
-0.103675
-0.095636
-0.0877234
-0.0799237
-0.0722574
-0.0646837
-0.0571543
-0.0496478
-0.0421353
-0.0345779
-0.0269561
-0.0192808
-0.0115757
-0.00385922
0.00385961
0.0115761
0.0192813
0.0269565
0.0345783
0.0421357
0.0496482
0.0571548
0.0646841
0.0722578
0.0799241
0.0877238
0.0956364
0.103675
0.111857
0.120406
0.128575
0.132552
0.13925
0.132768
0.106428
0.0789926
0.0502338
0.0201213
-0.0112948
-0.0438897
-0.077493
-0.111945
-0.147151
-0.183193
-0.220708
-0.262466
-0.280414
-0.269382
-0.255214
-0.239445
-0.223167
-0.206754
-0.190306
-0.173843
-0.157365
-0.140867
-0.124349
-0.107811
-0.0912543
-0.0746825
-0.0580983
-0.041505
-0.0249054
-0.00830221
0.00861607
0.025848
0.043079
0.0603085
0.077535
0.0947571
0.111973
0.129181
0.146381
0.163576
0.180771
0.197984
0.215239
0.232573
0.249989
0.267148
0.281076
0.269629
0.233141
0.194275
0.156084
0.118722
0.0821028
0.0462268
0.0111941
-0.0228189
-0.0556051
-0.0870559
-0.117251
-0.146454
-0.15519
-0.144514
-0.136222
-0.129148
-0.121241
-0.113022
-0.104845
-0.0967546
-0.0887628
-0.0808693
-0.0730733
-0.0653544
-0.0576851
-0.0500434
-0.0424062
-0.0347513
-0.0270661
-0.0193517
-0.0116176
-0.00387333
0.00387373
0.011618
0.0193521
0.0270665
0.0347517
0.0424066
0.0500438
0.0576856
0.0653548
0.0730738
0.0808697
0.0887632
0.096755
0.104845
0.113022
0.121241
0.129149
0.136223
0.144515
0.15519
0.146455
0.117252
0.0870563
0.0556054
0.0228193
-0.0111938
-0.0462265
-0.0821024
-0.118722
-0.156083
-0.194275
-0.233141
-0.269629
-0.281076
-0.267148
-0.249989
-0.232573
-0.215239
-0.197984
-0.180771
-0.163576
-0.146381
-0.129181
-0.111973
-0.0947571
-0.0775351
-0.0603085
-0.0430791
-0.025848
-0.0086161
0.00893439
0.0268039
0.0446756
0.0625505
0.0804289
0.0983107
0.116195
0.134081
0.151967
0.169858
0.187762
0.205703
0.223736
0.24199
0.260889
0.282415
0.278248
0.243984
0.206286
0.167248
0.128213
0.0896104
0.0515642
0.0141534
-0.0224957
-0.0581449
-0.0924197
-0.125139
-0.156517
-0.166973
-0.157051
-0.147422
-0.138703
-0.130583
-0.122414
-0.114172
-0.105953
-0.0977992
-0.0897267
-0.081739
-0.0738323
-0.0659935
-0.058205
-0.0504487
-0.0427073
-0.0349654
-0.0272133
-0.0194483
-0.011673
-0.00389149
0.00389188
0.0116733
0.0194487
0.0272137
0.0349658
0.0427077
0.0504491
0.0582054
0.065994
0.0738327
0.0817394
0.0897271
0.0977996
0.105953
0.114173
0.122414
0.130583
0.138703
0.147422
0.157051
0.166973
0.156517
0.125139
0.0924201
0.0581453
0.022496
-0.0141531
-0.0515638
-0.0896101
-0.128213
-0.167248
-0.206286
-0.243984
-0.278248
-0.282415
-0.260889
-0.24199
-0.223736
-0.205703
-0.187762
-0.169858
-0.151967
-0.134081
-0.116195
-0.0983108
-0.080429
-0.0625505
-0.0446756
-0.0268039
-0.00893441
0.00925614
0.0277703
0.0462899
0.0648181
0.0833568
0.101907
0.120468
0.139039
0.157616
0.1762
0.194794
0.213417
0.232101
0.250857
0.26926
0.283479
0.265618
0.221867
0.180851
0.140288
0.0999707
0.0599898
0.0204266
-0.0186564
-0.0571717
-0.0948424
-0.130798
-0.16458
-0.176731
-0.1679
-0.15865
-0.149452
-0.140616
-0.132097
-0.12369
-0.11533
-0.107025
-0.0987896
-0.0906316
-0.0825517