/*--------------------------------*- C++ -*----------------------------------*\
  =========                 |
  \\      /  F ield         | OpenFOAM: The Open Source CFD Toolbox
   \\    /   O peration     | Website:  https://openfoam.org
    \\  /    A nd           | Version:  7
     \\/     M anipulation  |
\*---------------------------------------------------------------------------*/
FoamFile
{
    version     2.0;
    format      ascii;
    class       volScalarField;
    location    "0.039";
    object      gradTy;
}
// * * * * * * * * * * * * * * * * * * * * * * * * * * * * * * * * * * * * * //

dimensions      [0 -1 0 1 0 0 0];

internalField   nonuniform List<scalar> 
10000
(
9.01772e-05
9.0082e-05
8.99125e-05
8.96584e-05
8.92879e-05
8.88432e-05
8.83455e-05
8.7742e-05
8.70856e-05
8.63338e-05
8.55186e-05
8.4608e-05
8.36657e-05
8.26281e-05
8.15587e-05
8.04046e-05
7.91976e-05
7.79588e-05
7.66671e-05
7.53542e-05
7.39777e-05
7.26013e-05
7.11931e-05
6.97638e-05
6.83132e-05
6.68415e-05
6.54015e-05
6.39616e-05
6.25216e-05
6.10711e-05
5.96946e-05
5.83288e-05
5.70053e-05
5.5703e-05
5.44325e-05
5.32466e-05
5.21137e-05
5.10231e-05
5.00173e-05
4.90432e-05
4.8175e-05
4.73703e-05
4.66292e-05
4.59939e-05
4.54327e-05
4.49774e-05
4.45857e-05
4.4321e-05
4.41198e-05
4.40457e-05
4.40351e-05
4.41198e-05
4.43104e-05
4.4628e-05
4.49669e-05
4.54433e-05
4.60151e-05
4.66398e-05
4.73491e-05
4.81538e-05
4.90538e-05
4.99961e-05
5.1002e-05
5.21031e-05
5.32466e-05
5.44748e-05
5.56924e-05
5.69841e-05
5.83182e-05
5.97052e-05
6.11134e-05
6.25428e-05
6.3951e-05
6.53909e-05
6.68309e-05
6.83132e-05
6.9732e-05
7.11825e-05
7.26119e-05
7.39989e-05
7.53436e-05
7.66777e-05
7.79588e-05
7.91976e-05
8.0394e-05
8.15481e-05
8.26387e-05
8.36657e-05
8.46186e-05
8.55186e-05
8.63444e-05
8.70856e-05
8.77844e-05
8.83561e-05
8.88749e-05
8.9309e-05
8.96373e-05
8.9902e-05
9.00925e-05
9.01455e-05
0.000270119
0.000269886
0.000269356
0.000268594
0.000267535
0.000266233
0.000264698
0.000262919
0.000260907
0.000258673
0.000256196
0.000253506
0.000250616
0.000247535
0.000244316
0.000240864
0.000237275
0.000233538
0.000229694
0.000225713
0.000221626
0.000217433
0.00021323
0.000208931
0.000204601
0.00020027
0.000195919
0.000191599
0.000187279
0.000183023
0.000178862
0.000174753
0.00017073
0.000166865
0.000163117
0.000159507
0.000156066
0.000152826
0.000149745
0.000146907
0.000144229
0.000141846
0.000139686
0.000137759
0.000136097
0.00013471
0.000133588
0.00013273
0.000132169
0.000131904
0.000131904
0.000132179
0.000132719
0.000133588
0.000134699
0.000136108
0.000137759
0.000139676
0.000141836
0.00014425
0.000146876
0.000149745
0.000152815
0.000156045
0.000159507
0.000163107
0.000166855
0.000170741
0.000174743
0.00017884
0.000183023
0.000187258
0.000191578
0.000195876
0.000200249
0.000204601
0.000208931
0.000213219
0.000217486
0.000221616
0.000225703
0.000229684
0.000233548
0.000237275
0.000240854
0.000244295
0.000247545
0.000250626
0.000253506
0.000256185
0.000258673
0.000260918
0.00026294
0.000264708
0.000266244
0.000267535
0.000268552
0.000269356
0.000269865
0.000270151
0.00044898
0.000448567
0.000447699
0.000446386
0.000444692
0.000442543
0.000439991
0.000437016
0.00043367
0.000429912
0.000425803
0.000421357
0.00041655
0.000411457
0.000406015
0.000400329
0.000394357
0.000388153
0.000381737
0.000375119
0.000368322
0.000361408
0.000354356
0.000347209
0.000340041
0.000332799
0.000325589
0.000318357
0.00031121
0.000304148
0.000297192
0.000290352
0.000283724
0.000277266
0.000271029
0.000265026
0.000259319
0.000253909
0.000248805
0.000244062
0.000239668
0.000235666
0.000232066
0.000228879
0.000226126
0.000223797
0.000221944
0.000220546
0.000219614
0.000219127
0.000219106
0.000219583
0.000220536
0.000221933
0.000223807
0.000226126
0.000228868
0.000232045
0.000235655
0.000239647
0.00024403
0.000248805
0.000253888
0.000259298
0.000265015
0.000270987
0.000277244
0.000283682
0.000290352
0.00029716
0.000304117
0.000311168
0.000318326
0.000325547
0.000332789
0.000339999
0.00034722
0.000354346
0.000361365
0.000368279
0.000375098
0.000381705
0.000388132
0.000394336
0.000400308
0.000405983
0.000411414
0.000416528
0.000421346
0.000425803
0.000429912
0.00043367
0.000436984
0.00043996
0.000442511
0.000444661
0.000446408
0.000447689
0.000448536
0.00044898
0.000626021
0.000625386
0.000624189
0.000622389
0.000619986
0.000617
0.000613442
0.000609303
0.000604612
0.000599392
0.000593654
0.00058747
0.000580758
0.000573621
0.000566062
0.00055811
0.000549788
0.000541138
0.00053217
0.000522937
0.000513482
0.000503826
0.000494
0.000484037
0.000473989
0.000463909
0.000453819
0.00044375
0.000433766
0.000423898
0.00041421
0.000404691
0.000395416
0.000386406
0.000377703
0.00036938
0.000361408
0.000353827
0.000346733
0.000340094
0.000333996
0.000328416
0.000323397
0.00031895
0.000315086
0.000311856
0.000309252
0.000307304
0.000305969
0.000305292
0.000305313
0.000305948
0.000307272
0.000309231
0.000311825
0.000315064
0.000318897
0.000323355
0.000328384
0.000333996
0.000340105
0.000346701
0.000353837
0.000361397
0.000369338
0.000377692
0.000386395
0.000395406
0.00040467
0.00041421
0.000423898
0.000433776
0.00044375
0.000453819
0.000463899
0.000473957
0.000484005
0.000493958
0.000503762
0.00051344
0.000522905
0.000532148
0.000541106
0.000549767
0.000558078
0.000566019
0.000573568
0.000580736
0.000587439
0.000593664
0.000599382
0.000604602
0.000609303
0.000613421
0.000616989
0.000619965
0.000622379
0.000624179
0.000625407
0.000626
0.000800457
0.000799684
0.000798117
0.000795809
0.000792738
0.000788916
0.000784342
0.000779069
0.000773045
0.000766374
0.000759058
0.000751096
0.000742551
0.000733403
0.000723737
0.000713551
0.000702889
0.000691835
0.000680358
0.000668542
0.000656429
0.000644052
0.000631463
0.000618758
0.000605893
0.000593018
0.000580101
0.000567226
0.000554478
0.000541836
0.000529417
0.000517241
0.000505372
0.000493831
0.000482703
0.000472041
0.000461834
0.000452146
0.000443072
0.000434591
0.000426778
0.000419631
0.000413183
0.000407486
0.000402563
0.000398423
0.000395099
0.000392568
0.000390885
0.000390048
0.000390059
0.000390906
0.000392568
0.000395077
0.000398423
0.000402542
0.000407486
0.000413172
0.000419599
0.000426746
0.000434581
0.000443051
0.000452136
0.000461834
0.000472009
0.000482703
0.000493831
0.000505372
0.000517219
0.000529385
0.000541805
0.000554436
0.000567205
0.00058008
0.000592965
0.000605893
0.000618726
0.000631463
0.000644031
0.000656429
0.000668521
0.000680337
0.000691804
0.000702879
0.00071353
0.000723726
0.000733403
0.000742541
0.000751096
0.000759069
0.000766406
0.000773055
0.000779059
0.000784353
0.000788916
0.000792738
0.000795819
0.000798138
0.000799684
0.000800457
0.000971631
0.0009707
0.000968805
0.000965999
0.00096224
0.000957581
0.000952054
0.000945617
0.000938364
0.000930233
0.000921339
0.000911651
0.000901264
0.000890158
0.000878405
0.000866038
0.0008531
0.000839632
0.000825688
0.000811331
0.000796624
0.000781568
0.00076629
0.000750831
0.000735225
0.000719533
0.000703831
0.000688225
0.000672703
0.000657403
0.000642305
0.000627503
0.000613072
0.000599075
0.000585543
0.000572541
0.000560143
0.000548433
0.000537379
0.000527087
0.000517569
0.000508887
0.000501073
0.000494148
0.000488187
0.000483148
0.000479092
0.000476033
0.000474031
0.000472994
0.000472983
0.000473989
0.000476043
0.000479103
0.000483137
0.000488166
0.000494159
0.000501041
0.000508876
0.000517548
0.000527056
0.000537379
0.000548433
0.000560132
0.00057252
0.000585522
0.000599043
0.00061304
0.000627461
0.000642252
0.00065734
0.000672692
0.000688214
0.000703853
0.000719512
0.000735214
0.000750799
0.000766279
0.000781568
0.000796592
0.00081132
0.000825667
0.00083959
0.000853068
0.000866017
0.000878373
0.000890168
0.000901254
0.000911672
0.000921307
0.000930222
0.000938343
0.000945596
0.000952033
0.000957581
0.000962229
0.000965988
0.000968805
0.000970689
0.000971653
0.00113883
0.0011377
0.00113552
0.0011322
0.0011278
0.00112233
0.00111583
0.00110831
0.00109975
0.00109026
0.0010798
0.00106843
0.00105622
0.0010432
0.0010294
0.00101489
0.000999689
0.000983882
0.000967534
0.000950689
0.00093342
0.00091578
0.000897855
0.000879697
0.00086139
0.000842967
0.000824576
0.000806248
0.000788037
0.000770048
0.000752324
0.00073497
0.00071804
0.000701608
0.000685747
0.000670501
0.000655942
0.000642178
0.000629229
0.000617159
0.00060601
0.000595814
0.000586644
0.000578524
0.000571514
0.000565627
0.000560863
0.000557295
0.000554891
0.000553695
0.000553684
0.000554881
0.000557284
0.000560852
0.000565596
0.000571483
0.000578492
0.000586623
0.000595782
0.000605967
0.000617138
0.000629218
0.000642157
0.000655942
0.000670469
0.000685705
0.000701555
0.000717998
0.000734928
0.000752282
0.000770006
0.000787984
0.000806206
0.000824544
0.000842967
0.000861358
0.000879665
0.000897844
0.00091577
0.000933409
0.000950678
0.000967534
0.000983882
0.000999689
0.00101488
0.00102941
0.0010432
0.00105623
0.00106843
0.00107978
0.00109023
0.00109972
0.00110828
0.00111583
0.00112234
0.00112782
0.00113219
0.00113548
0.00113771
0.00113881
0.00130136
0.0013001
0.00129758
0.00129377
0.00128877
0.00128251
0.00127505
0.00126642
0.00125663
0.00124575
0.00123379
0.00122081
0.00120682
0.00119192
0.00117612
0.0011595
0.00114212
0.00112402
0.00110531
0.00108604
0.00106629
0.00104611
0.00102558
0.00100481
0.00098385
0.000962812
0.000941752
0.000920735
0.00089992
0.000879294
0.00085905
0.000839187
0.000819811
0.000801007
0.000782849
0.000765432
0.000748809
0.000733065
0.000718231
0.000704403
0.000691645
0.000679998
0.000669505
0.00066022
0.000652173
0.000645439
0.000640018
0.000635931
0.000633157
0.000631781
0.000631781
0.000633168
0.000635889
0.000639986
0.000645418
0.000652173
0.000660177
0.000669484
0.000679966
0.000691602
0.000704382
0.000718178
0.000732991
0.000748756
0.000765411
0.000782828
0.000800976
0.00081978
0.000839166
0.000859018
0.000879273
0.000899877
0.000920704
0.000941699
0.00096278
0.000983818
0.0010048
0.00102555
0.0010461
0.00106627
0.00108606
0.00110533
0.00112404
0.00114213
0.0011595
0.00117614
0.0011919
0.00120683
0.00122078
0.0012338
0.00124573
0.00125665
0.00126643
0.00127503
0.00128249
0.00128876
0.00129376
0.00129757
0.00130008
0.00130134
0.00145856
0.00145716
0.00145429
0.00145004
0.0014444
0.00143741
0.00142904
0.00141934
0.00140836
0.00139613
0.00138273
0.00136814
0.00135243
0.0013357
0.00131795
0.00129931
0.00127979
0.00125951
0.00123848
0.00121684
0.00119463
0.001172
0.00114897
0.00112563
0.00110213
0.00107847
0.00105483
0.00103126
0.00100788
0.000984792
0.000962018
0.000939751
0.000917983
0.00089686
0.000876531
0.000856943
0.000838309
0.000820616
0.000803982
0.000788461
0.000774114
0.000761049
0.000749275
0.000738856
0.000729846
0.000722286
0.000716188
0.000711571
0.000708511
0.000706965
0.000706934
0.000708511
0.000711571
0.000716156
0.000722233
0.000729825
0.000738856
0.000749285
0.000761027
0.000774093
0.000788439
0.000803961
0.000820584
0.000838266
0.000856911
0.000876467
0.000896849
0.000917951
0.00093973
0.000961996
0.000984782
0.00100787
0.00103128
0.00105481
0.00107846
0.00110209
0.0011256
0.00114893
0.00117199
0.00119464
0.00121683
0.00123849
0.0012595
0.00127979
0.00129933
0.00131797
0.00133571
0.00135244
0.00136814
0.00138272
0.00139617
0.00140837
0.00141933
0.00142903
0.00143738
0.00144439
0.00145005
0.0014543
0.00145713
0.00145857
0.00160983
0.00160825
0.00160511
0.00160042
0.00159418
0.00158644
0.00157718
0.00156646
0.00155437
0.00154084
0.00152598
0.00150985
0.0014925
0.00147395
0.00145436
0.00143371
0.00141216
0.00138971
0.00136649
0.00134255
0.00131803
0.00129295
0.00126749
0.00124169
0.00121568
0.00118956
0.00116341
0.00113739
0.00111151
0.00108596
0.00106081
0.00103613
0.00101214
0.000988816
0.000966285
0.000944664
0.00092406
0.000904483
0.000886092
0.000868939
0.000853079
0.000838626
0.000825614
0.000814126
0.000804152
0.000795787
0.000789054
0.000783971
0.000780573
0.000778879
0.0007789
0.000780573
0.000783971
0.000789032
0.000795798
0.000804162
0.000814136
0.000825624
0.000838658
0.00085311
0.000868929
0.000886071
0.000904462
0.000924007
0.000944653
0.000966253
0.000988773
0.00101211
0.00103613
0.0010608
0.00108595
0.00111152
0.00113734
0.00116342
0.00118954
0.00121568
0.00124169
0.00126749
0.00129293
0.00131799
0.00134254
0.00136645
0.00138973
0.00141216
0.00143373
0.00145436
0.00147395
0.00149246
0.00150984
0.00152596
0.00154082
0.00155432
0.00156645
0.00157716
0.00158641
0.00159416
0.00160044
0.00160511
0.00160826
0.00160983
0.00175451
0.0017528
0.00174939
0.00174425
0.00173746
0.00172898
0.00171887
0.00170716
0.00169391
0.00167916
0.00166293
0.00164532
0.00162638
0.00160617
0.00158475
0.0015622
0.00153862
0.0015141
0.00148876
0.00146261
0.00143582
0.00140848
0.00138064
0.00135248
0.00132406
0.00129556
0.00126701
0.00123855
0.00121031
0.00118242
0.00115495
0.00112806
0.0011018
0.00107638
0.00105176
0.00102819
0.00100565
0.000984305
0.000964231
0.000945501
0.00092821
0.000912434
0.000898226
0.000885658
0.000874816
0.000865657
0.000858298
0.000852782
0.000849055
0.000847202
0.000847213
0.000849055
0.00085275
0.000858309
0.000865668
0.000874816
0.000885668
0.000898226
0.000912424
0.000928232
0.00094549
0.00096422
0.000984295
0.00100563
0.00102817
0.00105175
0.00107635
0.00110181
0.00112805
0.00115495
0.00118242
0.00121034
0.00123857
0.001267
0.00129556
0.00132407
0.00135249
0.00138065
0.00140846
0.00143582
0.00146261
0.00148875
0.00151411
0.00153866
0.00156219
0.00158475
0.00160614
0.00162637
0.00164531
0.00166294
0.00167917
0.00169392
0.00170715
0.00171886
0.00172895
0.00173743
0.00174425
0.00174939
0.00175283
0.00175452
0.0018921
0.00189024
0.00188651
0.001881
0.00187361
0.00186445
0.00185353
0.0018409
0.00182657
0.00181064
0.00179311
0.00177406
0.00175359
0.00173171
0.00170858
0.00168423
0.00165874
0.00163224
0.00160482
0.00157658
0.00154761
0.00151804
0.00148801
0.00145757
0.00142686
0.00139604
0.00136522
0.00133448
0.00130394
0.0012738
0.00124413
0.00121508
0.00118674
0.0011592
0.00113265
0.00110716
0.00108283
0.00105979
0.00103808
0.00101786
0.000999181
0.000982135
0.000966803
0.00095323
0.000941477
0.00093162
0.000923668
0.000917665
0.000913663
0.000911651
0.00091164
0.000913663
0.000917654
0.000923668
0.000931609
0.000941467
0.00095323
0.000966782
0.000982135
0.000999181
0.00101786
0.00103807
0.00105977
0.00108283
0.00110715
0.00113264
0.00115919
0.0011867
0.00121508
0.00124413
0.00127382
0.00130396
0.00133448
0.00136519
0.00139605
0.00142689
0.00145756
0.00148803
0.00151808
0.00154765
0.00157658
0.00160483
0.00163223
0.00165873
0.00168424
0.00170856
0.00173172
0.00175357
0.00177408
0.00179312
0.00181062
0.00182659
0.0018409
0.00185354
0.00186447
0.00187362
0.001881
0.00188654
0.00189024
0.00189211
0.00202194
0.00201996
0.00201599
0.00201007
0.00200216
0.00199235
0.00198066
0.00196714
0.00195178
0.00193469
0.00191595
0.00189553
0.00187358
0.00185016
0.00182537
0.00179929
0.00177198
0.0017436
0.00171423
0.00168399
0.00165294
0.00162131
0.00158912
0.00155652
0.00152365
0.00149064
0.0014576
0.00142469
0.00139204
0.00135973
0.00132796
0.00129681
0.00126647
0.00123703
0.0012086
0.00118128
0.00115525
0.00113055
0.00110734
0.00108567
0.00106571
0.00104744
0.00103103
0.00101651
0.00100391
0.000993358
0.000984835
0.00097844
0.000974141
0.000971991
0.000971981
0.00097413
0.00097844
0.000984856
0.000993347
0.00100391
0.00101648
0.00103103
0.00104744
0.00106567
0.0010857
0.00110735
0.00113057
0.00115525
0.00118127
0.0012086
0.00123702
0.00126647
0.00129683
0.00132798
0.00135973
0.001392
0.00142467
0.00145762
0.00149065
0.00152365
0.00155653
0.00158911
0.00162131
0.00165298
0.00168401
0.00171426
0.00174363
0.001772
0.00179927
0.00182537
0.00185015
0.00187357
0.00189552
0.00191591
0.00193469
0.00195178
0.00196713
0.00198066
0.00199237
0.00200217
0.00201006
0.002016
0.00201998
0.00202199
0.00214362
0.00214149
0.0021373
0.00213098
0.0021226
0.00211216
0.00209972
0.00208533
0.00206902
0.00205086
0.0020309
0.00200924
0.0019859
0.00196103
0.00193468
0.00190694
0.00187796
0.00184779
0.00181656
0.00178441
0.00175144
0.0017178
0.00168356
0.00164894
0.00161403
0.00157895
0.00154383
0.00150886
0.00147418
0.00143985
0.00140609
0.00137303
0.00134078
0.00130947
0.00127927
0.00125026
0.0012226
0.00119637
0.00117172
0.0011487
0.00112747
0.00110812
0.00109067
0.00107522
0.00106187
0.00105066
0.00104164
0.00103481
0.00103027
0.00102796
0.00102797
0.00103024
0.00103481
0.00104164
0.00105065
0.00106186
0.00107522
0.00109066
0.00110809
0.0011275
0.0011487
0.00117172
0.00119639
0.00122261
0.00125026
0.00127928
0.00130951
0.00134081
0.00137304
0.00140614
0.00143988
0.00147419
0.00150888
0.00154386
0.00157895
0.00161403
0.00164896
0.00168359
0.00171781
0.00175145
0.00178443
0.00181659
0.00184777
0.00187797
0.00190696
0.00193469
0.00196105
0.00198592
0.00200923
0.00203092
0.00205088
0.00206903
0.00208533
0.00209974
0.00211216
0.00212258
0.00213097
0.0021373
0.00214155
0.00214363
0.0022566
0.00225439
0.00224994
0.00224326
0.0022344
0.0022234
0.00221028
0.00219506
0.00217785
0.00215868
0.00213759
0.00211473
0.0020901
0.00206386
0.00203604
0.00200678
0.00197617
0.00194435
0.00191138
0.00187746
0.00184267
0.00180713
0.00177101
0.00173448
0.00169762
0.00166058
0.00162357
0.00158667
0.00155005
0.00151387
0.00147825
0.00144335
0.00140931
0.00137632
0.00134442
0.00131383
0.00128464
0.00125699
0.00123095
0.00120671
0.00118432
0.00116388
0.00114547
0.0011292
0.00111512
0.00110328
0.00109376
0.00108656
0.00108177
0.00107936
0.00107938
0.00108179
0.0010866
0.00109375
0.00110329
0.00111512
0.0011292
0.00114547
0.00116389
0.00118429
0.00120671
0.00123099
0.00125699
0.00128465
0.00131388
0.00134445
0.00137634
0.00140936
0.00144337
0.00147826
0.0015139
0.00155006
0.00158668
0.00162357
0.00166062
0.00169763
0.00173452
0.00177106
0.00180716
0.00184268
0.00187746
0.0019114
0.00194435
0.00197618
0.00200678
0.00203604
0.00206388
0.00209014
0.00211474
0.00213761
0.00215867
0.00217784
0.00219506
0.00221025
0.0022234
0.00223441
0.00224327
0.00224993
0.00225439
0.00225661
0.00236046
0.00235811
0.00235342
0.00234644
0.00233717
0.00232561
0.00231185
0.00229591
0.00227786
0.00225771
0.00223563
0.00221163
0.0021858
0.00215826
0.00212908
0.0020984
0.00206629
0.00203291
0.00199834
0.00196274
0.00192627
0.00188902
0.00185116
0.00181282
0.00177417
0.00173533
0.0016965
0.00165779
0.0016194
0.00158146
0.00154414
0.00150755
0.00147188
0.00143725
0.00140384
0.00137177
0.00134116
0.00131218
0.00128492
0.0012595
0.001236
0.00121458
0.00119529
0.00117822
0.00116347
0.00115106
0.00114106
0.00113354
0.00112851
0.00112601
0.00112602
0.00112854
0.00113357
0.0011411
0.00115109
0.00116347
0.00117823
0.00119528
0.00121458
0.00123601
0.00125947
0.0012849
0.00131218
0.00134119
0.00137179
0.00140386
0.00143727
0.00147189
0.00150758
0.00154414
0.00158147
0.00161942
0.00165781
0.00169652
0.00173536
0.0017742
0.00181284
0.00185116
0.00188902
0.00192628
0.00196278
0.00199835
0.00203294
0.00206631
0.00209843
0.00212913
0.00215829
0.00218583
0.00221166
0.00223566
0.00225775
0.00227784
0.00229591
0.00231187
0.00232563
0.00233717
0.00234645
0.00235345
0.00235812
0.00236048
0.00245479
0.00245233
0.00244747
0.00244015
0.00243048
0.00241845
0.00240407
0.00238744
0.00236862
0.00234762
0.00232459
0.00229953
0.00227262
0.00224389
0.00221346
0.00218145
0.00214797
0.00211316
0.00207713
0.00203999
0.00200196
0.0019631
0.00192363
0.00188365
0.00184332
0.00180287
0.00176237
0.00172201
0.001682
0.00164243
0.0016035
0.00156537
0.00152821
0.0014921
0.00145729
0.00142385
0.00139196
0.00136172
0.00133331
0.00130681
0.00128234
0.00126003
0.00123992
0.00122214
0.00120675
0.00119382
0.00118343
0.0011756
0.00117033
0.0011677
0.0011677
0.00117037
0.00117559
0.00118342
0.00119385
0.00120676
0.00122212
0.00123992
0.00126001
0.00128237
0.00130682
0.0013333
0.00136174
0.00139197
0.00142386
0.0014573
0.00149213
0.00152823
0.00156538
0.00160351
0.00164243
0.001682
0.00172203
0.00176238
0.00180288
0.00184333
0.00188363
0.00192361
0.00196309
0.00200196
0.00203999
0.00207712
0.00211314
0.00214796
0.00218145
0.00221345
0.00224389
0.00227262
0.00229955
0.00232458
0.00234764
0.00236863
0.00238748
0.0024041
0.00241844
0.00243049
0.00244016
0.00244747
0.00245233
0.00245479
0.0025392
0.00253669
0.00253162
0.00252406
0.002514
0.00250151
0.00248662
0.00246934
0.00244981
0.00242804
0.00240412
0.00237815
0.00235023
0.00232043
0.00228887
0.00225564
0.00222092
0.00218479
0.00214741
0.00210891
0.00206943
0.00202913
0.00198819
0.00194673
0.00190491
0.00186294
0.00182094
0.0017791
0.00173756
0.00169654
0.00165618
0.00161664
0.00157808
0.00154068
0.00150455
0.0014699
0.00143684
0.0014055
0.00137605
0.0013486
0.00132321
0.00130007
0.00127922
0.0012608
0.00124485
0.00123147
0.00122068
0.00121256
0.00120712
0.00120439
0.00120437
0.0012071
0.00121255
0.00122067
0.00123146
0.00124486
0.00126081
0.00127925
0.00130006
0.00132322
0.00134858
0.00137607
0.00140552
0.00143685
0.00146992
0.00150457
0.00154068
0.00157809
0.00161665
0.00165618
0.00169654
0.00173758
0.0017791
0.00182093
0.00186292
0.00190492
0.0019467
0.00198818
0.00202914
0.00206942
0.00210889
0.00214739
0.00218478
0.0022209
0.00225562
0.00228884
0.00232041
0.00235023
0.00237817
0.00240413
0.00242806
0.00244983
0.00246937
0.00248663
0.00250153
0.00251403
0.00252407
0.00253164
0.00253669
0.00253924
0.00261347
0.00261084
0.00260562
0.00259781
0.00258745
0.00257451
0.00255913
0.00254133
0.00252114
0.00249869
0.002474
0.00244718
0.00241834
0.00238757
0.00235498
0.00232067
0.00228481
0.00224754
0.00220895
0.0021692
0.00212846
0.00208686
0.0020446
0.00200182
0.00195866
0.00191532
0.001872
0.00182884
0.00178598
0.00174364
0.00170199
0.00166119
0.0016214
0.0015828
0.00154554
0.00150977
0.00147565
0.00144337
0.00141295
0.00138462
0.00135849
0.0013346
0.00131311
0.0012941
0.00127764
0.00126384
0.00125271
0.00124433
0.00123872
0.00123592
0.00123592
0.00123871
0.00124434
0.00125271
0.00126383
0.00127764
0.00129411
0.0013131
0.00133459
0.00135847
0.00138462
0.00141296
0.00144334
0.00147567
0.00150979
0.00154556
0.00158281
0.0016214
0.00166119
0.001702
0.00174364
0.00178596
0.00182881
0.00187201
0.00191534
0.00195866
0.00200179
0.00204459
0.00208686
0.00212843
0.0021692
0.00220892
0.00224752
0.0022848
0.00232067
0.00235495
0.00238753
0.00241833
0.00244719
0.00247399
0.00249868
0.00252117
0.00254133
0.00255914
0.00257455
0.00258746
0.00259782
0.00260564
0.00261087
0.00261348
0.00267723
0.00267453
0.00266917
0.00266117
0.00265047
0.00263723
0.00262138
0.0026031
0.00258237
0.00255927
0.0025339
0.00250637
0.0024767
0.00244508
0.00241157
0.00237636
0.00233951
0.00230117
0.00226154
0.0022207
0.00217884
0.0021361
0.00209267
0.0020487
0.00200439
0.0019599
0.00191537
0.00187102
0.00182701
0.00178353
0.00174077
0.00169886
0.00165799
0.00161835
0.0015801
0.00154338
0.00150835
0.00147516
0.00144396
0.00141485
0.00138801
0.00136349
0.00134145
0.00132192
0.00130506
0.00129086
0.00127944
0.00127085
0.00126509
0.0012622
0.00126222
0.00126509
0.00127086
0.00127946
0.00129087
0.00130507
0.00132195
0.00134146
0.00136353
0.00138801
0.00141488
0.00144397
0.00147517
0.00150834
0.00154338
0.0015801
0.00161836
0.001658
0.00169885
0.00174076
0.00178354
0.00182702
0.00187102
0.00191536
0.00195988
0.00200439
0.00204873
0.00209269
0.00213613
0.00217883
0.0022207
0.00226153
0.00230114
0.00233948
0.00237633
0.00241157
0.00244507
0.0024767
0.00250635
0.00253392
0.00255928
0.00258237
0.0026031
0.00262141
0.00263724
0.00265051
0.00266119
0.00266919
0.00267457
0.00267725
0.00273029
0.00272753
0.00272201
0.00271382
0.0027029
0.00268934
0.00267316
0.00265442
0.0026332
0.00260958
0.00258362
0.00255542
0.00252509
0.00249272
0.00245847
0.00242245
0.00238476
0.00234553
0.00230498
0.00226322
0.0022204
0.00217671
0.00213227
0.00208728
0.00204196
0.00199647
0.00195093
0.00190558
0.00186059
0.00181614
0.00177238
0.00172955
0.00168778
0.00164726
0.00160813
0.00157059
0.00153482
0.00150088
0.00146897
0.00143924
0.00141177
0.00138672
0.0013642
0.00134425
0.00132701
0.00131249
0.00130085
0.00129203
0.00128618
0.00128322
0.00128322
0.00128617
0.00129204
0.00130085
0.00131253
0.00132701
0.00134425
0.0013642
0.00138674
0.00141179
0.00143924
0.00146899
0.00150087
0.00153479
0.00157059
0.00160811
0.00164724
0.00168776
0.00172956
0.00177238
0.00181611
0.0018606
0.0019056
0.00195094
0.00199648
0.00204198
0.00208731
0.00213229
0.00217669
0.0022204
0.00226321
0.00230497
0.00234554
0.00238476
0.00242244
0.00245849
0.00249274
0.00252509
0.00255543
0.00258364
0.00260956
0.00263321
0.00265444
0.00267317
0.00268935
0.00270295
0.00271385
0.00272206
0.00272755
0.0027303
0.00277244
0.00276963
0.00276404
0.00275565
0.00274453
0.00273072
0.00271424
0.00269515
0.00267352
0.00264946
0.00262302
0.00259428
0.00256339
0.00253042
0.00249551
0.00245881
0.00242041
0.00238048
0.00233916
0.00229662
0.002253
0.00220851
0.00216327
0.00211744
0.0020713
0.00202494
0.00197858
0.00193242
0.0018866
0.00184132
0.00179681
0.00175319
0.00171067
0.00166941
0.0016296
0.00159141
0.00155494
0.00152043
0.00148796
0.00145768
0.00142975
0.00140425
0.00138132
0.00136104
0.00134347
0.00132875
0.00131686
0.0013079
0.00130191
0.0012989
0.0012989
0.00130192
0.0013079
0.00131686
0.00132873
0.00134346
0.00136104
0.00138133
0.00140426
0.00142976
0.00145769
0.00148795
0.00152043
0.00155498
0.00159139
0.00162961
0.00166943
0.00171066
0.00175319
0.00179682
0.00184135
0.00188662
0.00193242
0.00197861
0.00202498
0.00207133
0.00211749
0.00216329
0.00220852
0.00225303
0.00229665
0.00233921
0.00238052
0.00242044
0.00245883
0.00249555
0.00253044
0.00256339
0.00259427
0.00262301
0.00264948
0.00267353
0.0026952
0.00271427
0.00273076
0.00274459
0.00275569
0.00276408
0.00276966
0.00277246
0.00280356
0.00280073
0.00279505
0.00278655
0.00277522
0.00276121
0.0027445
0.00272515
0.0027032
0.00267877
0.00265194
0.00262276
0.00259142
0.002558
0.00252259
0.00248534
0.0024464
0.00240592
0.00236401
0.00232084
0.00227661
0.00223146
0.00218556
0.00213914
0.00209233
0.0020453
0.00199829
0.00195146
0.00190501
0.00185912
0.00181396
0.00176975
0.00172662
0.00168482
0.00164447
0.00160573
0.00156878
0.00153379
0.00150089
0.00147022
0.00144191
0.00141607
0.00139281
0.00137223
0.00135447
0.00133953
0.00132749
0.00131841
0.00131233
0.00130929
0.00130929
0.00131236
0.00131842
0.00132747
0.0013395
0.00135446
0.00137224
0.00139281
0.00141609
0.0014419
0.00147022
0.00150087
0.00153381
0.00156878
0.00160573
0.00164448
0.00168483
0.00172664
0.00176977
0.001814
0.00185915
0.00190505
0.00195149
0.00199833
0.00204532
0.00209232
0.00213916
0.00218558
0.00223148
0.00227662
0.00232086
0.00236403
0.00240592
0.00244641
0.00248539
0.0025226
0.00255803
0.00259145
0.00262282
0.00265195
0.00267882
0.00270326
0.00272518
0.00274455
0.00276125
0.00277526
0.00278656
0.00279506
0.00280075
0.0028036
0.00282355
0.0028207
0.00281494
0.00280635
0.00279497
0.00278075
0.00276387
0.00274429
0.00272213
0.00269744
0.00267032
0.00264087
0.0026092
0.00257541
0.00253965
0.00250199
0.00246264
0.00242173
0.00237939
0.00233579
0.00229109
0.00224551
0.00219914
0.00215226
0.00210495
0.00205749
0.00201
0.0019627
0.0019158
0.00186945
0.00182384
0.0017792
0.00173568
0.00169346
0.00165269
0.00161361
0.00157632
0.00154095
0.00150776
0.00147682
0.00144823
0.00142216
0.00139867
0.00137792
0.00135994
0.00134487
0.00133273
0.00132359
0.00131748
0.0013144
0.0013144
0.00131746
0.00132357
0.00133273
0.00134489
0.00135997
0.00137792
0.00139867
0.00142214
0.00144823
0.00147682
0.00150778
0.00154096
0.00157632
0.00161362
0.00165272
0.00169346
0.00173572
0.00177925
0.00182388
0.00186949
0.00191583
0.00196276
0.00201004
0.0020575
0.00210498
0.00215226
0.00219916
0.00224554
0.00229114
0.00233583
0.0023794
0.00242173
0.00246266
0.00250201
0.00253966
0.00257542
0.00260922
0.00264092
0.00267035
0.00269748
0.00272216
0.00274431
0.00276389
0.0027808
0.00279495
0.00280638
0.00281497
0.00282072
0.00282358
0.00283237
0.00282946
0.00282368
0.00281502
0.00280358
0.00278928
0.00277226
0.00275256
0.00273028
0.00270543
0.00267812
0.0026485
0.00261662
0.00258261
0.00254659
0.00250874
0.00246914
0.00242796
0.00238536
0.00234148
0.0022965
0.0022506
0.00220401
0.00215679
0.00210924
0.00206148
0.00201373
0.00196614
0.00191896
0.00187236
0.00182649
0.00178156
0.00173782
0.00169534
0.00165437
0.00161507
0.00157757
0.00154204
0.00150866
0.00147751
0.00144877
0.00142255
0.00139896
0.00137809
0.00136005
0.0013449
0.00133269
0.00132349
0.00131732
0.00131426
0.00131422
0.0013173
0.00132348
0.00133267
0.00134489
0.00136006
0.0013781
0.00139898
0.00142256
0.00144878
0.00147751
0.00150867
0.00154206
0.00157757
0.00161505
0.00165438
0.00169535
0.00173783
0.0017816
0.00182653
0.00187237
0.001919
0.00196618
0.00201373
0.00206149
0.00210927
0.00215683
0.00220402
0.00225066
0.00229654
0.00234148
0.00238534
0.00242795
0.00246914
0.00250873
0.00254659
0.00258262
0.00261663
0.00264849
0.00267816
0.00270542
0.00273025
0.00275261
0.00277229
0.0027893
0.00280359
0.00281506
0.0028237
0.00282948
0.00283237
0.00282996
0.00282705
0.00282125
0.00281262
0.00280109
0.0027868
0.00276971
0.00274999
0.00272763
0.00270272
0.00267535
0.00264565
0.00261369
0.00257958
0.00254349
0.00250554
0.00246583
0.00242456
0.00238186
0.00233789
0.00229284
0.00224684
0.00220009
0.00215282
0.00210516
0.00205732
0.00200946
0.0019618
0.00191454
0.00186782
0.0018219
0.00177693
0.00173306
0.00169051
0.00164951
0.00161014
0.00157256
0.001537
0.00150358
0.0014724
0.00144361
0.00141734
0.00139372
0.00137284
0.00135477
0.00133959
0.00132739
0.00131817
0.00131201
0.0013089
0.00130889
0.00131199
0.00131815
0.00132737
0.00133959
0.00135478
0.00137285
0.00139374
0.00141735
0.00144362
0.00147239
0.00150357
0.00153702
0.00157257
0.00161014
0.00164951
0.00169056
0.0017331
0.00177694
0.0018219
0.00186788
0.00191458
0.00196186
0.0020095
0.00205736
0.00210521
0.00215288
0.00220016
0.00224687
0.00229285
0.00233791
0.00238189
0.00242461
0.00246584
0.00250554
0.00254351
0.0025796
0.00261371
0.00264565
0.00267536
0.00270272
0.00272765
0.00275001
0.00276976
0.00278681
0.00280112
0.00281263
0.00282129
0.00282707
0.00282998
0.00281642
0.00281352
0.00280773
0.00279908
0.00278757
0.0027733
0.0027563
0.00273656
0.00271423
0.00268935
0.00266207
0.00263238
0.00260045