/*--------------------------------*- C++ -*----------------------------------*\
  =========                 |
  \\      /  F ield         | OpenFOAM: The Open Source CFD Toolbox
   \\    /   O peration     | Website:  https://openfoam.org
    \\  /    A nd           | Version:  7
     \\/     M anipulation  |
\*---------------------------------------------------------------------------*/
FoamFile
{
    version     2.0;
    format      ascii;
    class       volScalarField;
    location    "0.039";
    object      gradTx;
}
// * * * * * * * * * * * * * * * * * * * * * * * * * * * * * * * * * * * * * //

dimensions      [0 -1 0 1 0 0 0];

internalField   nonuniform List<scalar> 
10000
(
9.01455e-05
0.000270129
0.00044898
0.000626
0.000800467
0.000971631
0.00113881
0.00130138
0.00145858
0.00160985
0.00175454
0.00189211
0.00202196
0.00214362
0.00225659
0.00236048
0.00245481
0.00253925
0.00261349
0.00267726
0.00273033
0.00277246
0.00280358
0.00282356
0.00283238
0.00282997
0.00281646
0.00279184
0.00275627
0.00270991
0.00265299
0.00258576
0.00250846
0.00242148
0.00232511
0.00221979
0.00210591
0.00198395
0.00185441
0.00171774
0.0015745
0.00142526
0.00127066
0.00111116
0.000947438
0.000780149
0.000609885
0.000437334
0.00026312
8.78903e-05
-8.76361e-05
-0.000262855
-0.000437111
-0.000609663
-0.000779927
-0.000947248
-0.00111093
-0.00127041
-0.00142506
-0.00157431
-0.00171752
-0.00185418
-0.00198375
-0.00210572
-0.0022196
-0.00232491
-0.00242128
-0.00250831
-0.00258559
-0.00265282
-0.00270975
-0.0027561
-0.00279167
-0.00281628
-0.00282986
-0.00283225
-0.00282344
-0.00280346
-0.00277234
-0.00273017
-0.00267713
-0.00261335
-0.00253912
-0.00245469
-0.00236034
-0.00225649
-0.00214354
-0.00202191
-0.00189204
-0.00175447
-0.0016098
-0.00145853
-0.00130131
-0.00113878
-0.0009716
-0.000800436
-0.000626
-0.000448991
-0.000270129
-9.01667e-05
9.0082e-05
0.000269854
0.000448557
0.000625386
0.000799663
0.000970679
0.00113772
0.00130011
0.00145717
0.00160827
0.00175282
0.00189025
0.00201999
0.00214149
0.00225439
0.00235813
0.00245235
0.00253672
0.00261087
0.00267456
0.00272756
0.00276968
0.00280074
0.00282069
0.0028295
0.00282706
0.00281356
0.00278896
0.0027534
0.00270709
0.00265024
0.00258306
0.00250584
0.00241891
0.00232266
0.00221745
0.00210368
0.00198186
0.00185242
0.00171589
0.00157283
0.00142375
0.00126927
0.00110997
0.000946422
0.000779302
0.000609218
0.000436857
0.000262845
8.78161e-05
-8.75726e-05
-0.00026258
-0.000436614
-0.000609006
-0.000779101
-0.00094621
-0.00110973
-0.00126906
-0.00142354
-0.00157261
-0.0017157
-0.00185221
-0.00198164
-0.00210349
-0.00221723
-0.00232247
-0.00241874
-0.00250567
-0.00258287
-0.00265006
-0.00270692
-0.00275327
-0.0027888
-0.00281341
-0.00282693
-0.00282934
-0.00282055
-0.0028006
-0.00276952
-0.00272744
-0.00267445
-0.00261074
-0.0025366
-0.00245226
-0.00235799
-0.00225426
-0.00214143
-0.00201991
-0.00189018
-0.00175277
-0.00160822
-0.00145709
-0.00130002
-0.0011377
-0.000970657
-0.000799673
-0.000625407
-0.000448536
-0.000269886
-9.00925e-05
8.99125e-05
0.000269346
0.000447689
0.000624189
0.000798117
0.000968805
0.00113549
0.00129758
0.00145433
0.00160513
0.00174938
0.00188654
0.002016
0.00213732
0.00224992
0.00235344
0.00244747
0.00253167
0.00260565
0.00266919
0.00272206
0.00276408
0.00279507
0.00281492
0.00282372
0.0028213
0.00280777
0.0027832
0.0027477
0.00270147
0.00264472
0.00257765
0.00250058
0.00241384
0.00231775
0.00221274
0.00209923
0.00197764
0.00184848
0.00171223
0.00156945
0.00142074
0.00126654
0.00110758
0.000944399
0.000777619
0.000607916
0.000435926
0.000262284
8.7615e-05
-8.73609e-05
-0.00026204
-0.000435682
-0.000607693
-0.000777407
-0.000944188
-0.00110736
-0.00126634
-0.00142052
-0.00156925
-0.00171201
-0.00184826
-0.00197745
-0.00209902
-0.00221253
-0.00231756
-0.00241366
-0.00250042
-0.00257749
-0.00264454
-0.00270133
-0.00274756
-0.00278304
-0.00280761
-0.00282114
-0.00282356
-0.00281482
-0.00279492
-0.00276392
-0.00272193
-0.00266907
-0.00260551
-0.00253154
-0.00244739
-0.00235332
-0.00224979
-0.00213721
-0.00201595
-0.00188647
-0.00174931
-0.00160505
-0.00145426
-0.00129753
-0.00113548
-0.000968762
-0.000798127
-0.000624179
-0.000447678
-0.000269346
-8.98914e-05
8.96478e-05
0.000268573
0.000446386
0.000622368
0.000795809
0.000965988
0.0011322
0.00129379
0.00145007
0.00160042
0.00174426
0.001881
0.00201006
0.002131
0.00224324
0.00234646
0.00244019
0.00252409
0.00259783
0.00266117
0.00271385
0.00275571
0.00278656
0.00280636
0.00281507
0.00281263
0.00279912
0.00277457
0.00273919
0.00269309
0.00263645
0.00256958
0.00249273
0.00240623
0.00231042
0.00220573
0.00209256
0.00197135
0.00184257
0.00170677
0.00156442
0.00141614
0.00126249
0.00110402
0.000941329
0.00077513
0.000605978
0.000434507
0.000261426
8.73185e-05
-8.70962e-05
-0.000261172
-0.000434284
-0.000605734
-0.000774898
-0.000941149
-0.00110381
-0.00126226
-0.00141594
-0.00156423
-0.00170654
-0.00184235
-0.00197115
-0.00209236
-0.00220554
-0.00231024
-0.00240606
-0.00249255
-0.00256939
-0.00263631
-0.00269291
-0.00273904
-0.00277444
-0.00279896
-0.00281247
-0.00281492
-0.00280622
-0.00278642
-0.00275559
-0.00271372
-0.00266102
-0.00259769
-0.00252398
-0.00244007
-0.00234636
-0.00224316
-0.00213087
-0.00200998
-0.00188092
-0.0017442
-0.00160034
-0.00145001
-0.00129373
-0.00113218
-0.000965956
-0.000795798
-0.000622368
-0.000446408
-0.000268562
-8.96373e-05
8.92984e-05
0.000267557
0.000444661
0.000619975
0.000792728
0.000962261
0.00112779
0.00128875
0.00144442
0.00159418
0.00173744
0.00187364
0.00200218
0.00212259
0.00223441
0.00233718
0.0024305
0.00251405
0.00258747
0.00265049
0.00270292
0.0027446
0.00277527
0.00279494
0.0028036
0.00280113
0.00278763
0.00276314
0.00272785
0.00268191
0.0026255
0.00255888
0.00248229
0.00239615
0.0023007
0.00219644
0.00208368
0.00196297
0.00183475
0.0016995
0.00155777
0.00141012
0.00125706
0.00109928
0.000937295
0.000771795
0.000603363
0.000432633
0.000260283
8.69585e-05
-8.6715e-05
-0.00026006
-0.0004324
-0.00060313
-0.000771583
-0.000937115
-0.00109908
-0.00125684
-0.00140988
-0.00155755
-0.0016993
-0.00183453
-0.00196276
-0.0020835
-0.00219624
-0.00230052
-0.00239594
-0.00248216
-0.00255869
-0.00262533
-0.00268175
-0.00272771
-0.002763
-0.00278745
-0.002801
-0.00280345
-0.00279482
-0.00277517
-0.00274445
-0.0027028
-0.00265038
-0.0025873
-0.00251391
-0.00243041
-0.00233706
-0.0022343
-0.00212251
-0.00200207
-0.00187352
-0.00173738
-0.00159413
-0.00144436
-0.0012887
-0.00112778
-0.000962219
-0.000792728
-0.000619975
-0.000444661
-0.000267525
-8.92984e-05
8.88643e-05
0.000266212
0.000442532
0.000617
0.000788905
0.000957603
0.00112233
0.0012825
0.00143739
0.00158642
0.00172898
0.00186448
0.00199238
0.00211218
0.0022234
0.0023256
0.00241847
0.00250155
0.00257456
0.00263723
0.00268936
0.00273074
0.00276126
0.00278079
0.00278931
0.00278682
0.00277333
0.00274895
0.00271379
0.00266804
0.00261186
0.00254555
0.00246932
0.00238356
0.00228862
0.00218487
0.00207267
0.00195259
0.00182502
0.00169044
0.00154947
0.00140256
0.00125036
0.00109342
0.000932266
0.000767634
0.000600133
0.000430314
0.000258885
8.64927e-05
-8.62385e-05
-0.000258663
-0.000430102
-0.00059989
-0.000767444
-0.000932075
-0.00109319
-0.00125015
-0.00140235
-0.00154924
-0.00169024
-0.00182478
-0.00195238
-0.0020725
-0.00218466
-0.00228842
-0.00238339
-0.00246919
-0.00254537
-0.0026117
-0.00266786
-0.00271364
-0.00274879
-0.00277319
-0.00278669
-0.00278915
-0.00278064
-0.00276115
-0.00273061
-0.00268921
-0.00263713
-0.00257441
-0.0025014
-0.00241836
-0.00232552
-0.00222328
-0.00211206
-0.0019923
-0.00186437
-0.0017289
-0.00158636
-0.00143734
-0.00128245
-0.00112231
-0.000957581
-0.000788905
-0.000616958
-0.000442522
-0.000266244
-8.88643e-05
8.83773e-05
0.000264708
0.00043996
0.000613421
0.000784321
0.000952054
0.00111585
0.00127505
0.00142902
0.00157716
0.00171887
0.00185356
0.00198068
0.00209975
0.00221028
0.00231187
0.00240409
0.00248662
0.00255916
0.00262144
0.00267316
0.00271427
0.00274455
0.00276389
0.00277229
0.00276973
0.00275632
0.00273203
0.00269703
0.00265149
0.00259559
0.00252964
0.00245387
0.0023686
0.0022742
0.00217103
0.00205955
0.00194021
0.0018134
0.00167971
0.00153956
0.0013936
0.00124235
0.00108637
0.000926294
0.000762711
0.000596258
0.000427561
0.000257233
8.59315e-05
-8.57197e-05
-0.000257
-0.000427307
-0.000596025
-0.00076252
-0.000926093
-0.00108618
-0.00124214
-0.00139337
-0.00153936
-0.00167947
-0.00181316
-0.00194
-0.0020594
-0.00217086
-0.002274
-0.00236842
-0.00245373
-0.00252948
-0.00259544
-0.00265132
-0.00269685
-0.00273183
-0.00275617
-0.00276961
-0.00277216
-0.00276375
-0.0027444
-0.00271413
-0.00267307
-0.00262128
-0.00255905
-0.00248653
-0.00240396
-0.00231174
-0.00221016
-0.00209963
-0.00198059
-0.00185347
-0.0017188
-0.00157711
-0.00142899
-0.001275
-0.00111579
-0.000952012
-0.000784331
-0.000613421
-0.00043996
-0.000264677
-8.83561e-05
8.77526e-05
0.00026293
0.000437005
0.000609271
0.000779048
0.000945617
0.00110832
0.00126642
0.00141934
0.00156645
0.00170715
0.00184092
0.00196715
0.00208535
0.00219509
0.00229591
0.00238746
0.00246939
0.00254135
0.00260313
0.00265445
0.00269516
0.00272518
0.00274431
0.00275261
0.00275
0.00273659
0.00271241
0.0026776
0.00263231
0.00257679
0.00251125
0.00243597
0.00235126
0.00225751
0.00215507
0.00204437
0.00192587
0.0018
0.00166721
0.00152812
0.00138322
0.00123306
0.00107826
0.00091938
0.000756993
0.000591801
0.000424332
0.000255296
8.52962e-05
-8.50739e-05
-0.000255063
-0.00042412
-0.000591568
-0.000756813
-0.000919168
-0.00107806
-0.00123287
-0.00138299
-0.0015279
-0.00166701
-0.00179975
-0.00192563
-0.0020442
-0.00215489
-0.00225732
-0.0023511
-0.0024358
-0.0025111
-0.00257662
-0.00263215
-0.00267742
-0.00271225
-0.00273642
-0.00274987
-0.00275244
-0.00274416
-0.00272504
-0.00269505
-0.0026543
-0.00260297
-0.00254125
-0.00246926
-0.00238734
-0.0022958
-0.00219497
-0.00208525
-0.00196704
-0.00184082
-0.00170711
-0.0015664
-0.00141928
-0.00126637
-0.00110826
-0.000945585
-0.000779037
-0.000609303
-0.000436995
-0.000262919
-8.77526e-05
8.70962e-05
0.000260918
0.000433649
0.000604612
0.000773066
0.000938343
0.00109975
0.00125663
0.00140835
0.00155435
0.00169393
0.00182657
0.0019518
0.00206905
0.00217786
0.00227787
0.00236863
0.00244983
0.00252116
0.0025824
0.00263323
0.00267356
0.00270324
0.00272215
0.00273029
0.00272764
0.00271425
0.0026902
0.0026556
0.00261061
0.00255549
0.00249041
0.00241566
0.00233165
0.00223863
0.00213699
0.00202717
0.00190964
0.00178476
0.0016531
0.00151516
0.00137145
0.00122257
0.00106906
0.000911535
0.000750545
0.000586729
0.0004207
0.000253093
8.45445e-05
-8.43327e-05
-0.000252871
-0.000420499
-0.000586507
-0.000750334
-0.000911344
-0.00106886
-0.00122235
-0.00137126
-0.00151493
-0.00165289
-0.00178454
-0.00190941
-0.00202699
-0.00213681
-0.00223842
-0.00233147
-0.00241554
-0.00249025
-0.00255532
-0.00261045
-0.00265543
-0.00269001
-0.00271411
-0.0027275
-0.00273015
-0.00272201
-0.00270309
-0.00267343
-0.00263309
-0.00258224
-0.00252105
-0.0024497
-0.00236851
-0.00227774
-0.00217776
-0.00206893
-0.00195171
-0.00182652
-0.00169384
-0.00155424
-0.00140831
-0.00125661
-0.00109972
-0.00093829
-0.000773066
-0.000604612
-0.000433639
-0.000260918
-8.7075e-05
8.63444e-05
0.000258673
0.00042988
0.000599392
0.000766406
0.000930254
0.00109025
0.00124575
0.00139613
0.00154082
0.00167915
0.00181063
0.00193471
0.00205088
0.0021587
0.00225776
0.00234765
0.00242807
0.00249869
0.0025593
0.0026096
0.00264949
0.00267882
0.00269748
0.00270544
0.00270271
0.00268938
0.00266548
0.0026311
0.00258647
0.00253175
0.00246721
0.00239311
0.00230978
0.00221757
0.00211685
0.00200805
0.00189154
0.00176783
0.00163736
0.00150071
0.00135839
0.00121087
0.00105882
0.00090281
0.000743335
0.000581096
0.000416656
0.000250679
8.37186e-05
-8.35174e-05
-0.000250446
-0.000416454
-0.000580895
-0.000743144
-0.000902577
-0.00105861
-0.00121065
-0.00135817
-0.00150051
-0.00163716
-0.00176761
-0.00189135
-0.00200785
-0.00211667
-0.00221741
-0.00230962
-0.00239294
-0.00246704
-0.00253158
-0.00258628
-0.00263094
-0.0026653
-0.00268922
-0.0027026
-0.00270531
-0.00269732
-0.00267866
-0.00264933
-0.00260945
-0.00255915
-0.00249857
-0.00242795
-0.00234753
-0.00225762
-0.0021586
-0.00205077
-0.00193462
-0.00181054
-0.00167908
-0.00154073
-0.0013961
-0.00124571
-0.00109022
-0.000930222
-0.000766374
-0.000599371
-0.000429922
-0.000258673
-8.63232e-05
8.55292e-05
0.000256196
0.000425793
0.000593685
0.0007591
0.000921328
0.00107978
0.0012338
0.00138273
0.00152596
0.00166294
0.00179311
0.00191592
0.0020309
0.00213761
0.00223568
0.0023246
0.00240415
0.00247404
0.00253391
0.00258365
0.00262304
0.00265196
0.00267036
0.00267817
0.00267537
0.00266206
0.0026383
0.00260419
0.00255991
0.00250566
0.00244172
0.00236835
0.00228581
0.00219447
0.00209475
0.00198699
0.00187168
0.00174921
0.0016201
0.00148485
0.001344
0.00119804
0.0010476
0.000893207
0.000735426
0.000574924
0.00041223
0.000248011
8.28398e-05
-8.26281e-05
-0.000247789
-0.000412039
-0.000574701
-0.000735203
-0.000892984
-0.00104739
-0.00119785
-0.00134378
-0.00148466
-0.00161991
-0.00174902
-0.00187148
-0.00198681
-0.00209455
-0.0021943
-0.00228562
-0.00236816
-0.00244156
-0.0025055
-0.00255974
-0.00260401
-0.00263813
-0.00266191
-0.00267524
-0.00267801
-0.00267021
-0.00265184
-0.0026229
-0.0025835
-0.00253377
-0.00247386
-0.00240401
-0.0023245
-0.00223554
-0.00213754
-0.00203081
-0.00191583
-0.001793
-0.00166286
-0.0015259
-0.00138268
-0.00123376
-0.00107977
-0.000921318
-0.000759037
-0.000593643
-0.000425814
-0.000256206
-8.5508e-05
8.46292e-05
0.000253528
0.000421346
0.00058746
0.000751128
0.000911672
0.00106845
0.00122079
0.00136814
0.00150984
0.00164531
0.00177408
0.00189552
0.00200924
0.00211474
0.00221165
0.00229958
0.00237818
0.00244719
0.00250636
0.00255547
0.0025943
0.00262284
0.0026409
0.00264851
0.00264567
0.00263238
0.00260878
0.00257495
0.00253111
0.00247738
0.00241408
0.00234142
0.00225974
0.0021694
0.00207075
0.00196416
0.00185012
0.00172902
0.00160134
0.00146764
0.00132839
0.00118411
0.00103541
0.000882788
0.00072685
0.00056819
0.000407423
0.00024511
8.18869e-05
-8.16752e-05
-0.000244909
-0.000407222
-0.000567967
-0.000726638
-0.000882566
-0.00103519
-0.00118392
-0.00132817
-0.00146743
-0.00160118
-0.00172882
-0.00184992
-0.00196397
-0.00207056
-0.00216923
-0.00225956
-0.00234124
-0.00241387
-0.0024772
-0.0025309
-0.00257479
-0.00260862
-0.00263226
-0.00264552
-0.00264839
-0.00264074
-0.00262267
-0.00259419
-0.00255531
-0.00250622
-0.00244706
-0.00237804
-0.00229944
-0.00221153
-0.00211464
-0.00200915
-0.00189545
-0.00177398
-0.00164522
-0.00150977
-0.00136813
-0.00122075
-0.00106842
-0.00091163
-0.000751075
-0.000587428
-0.000421346
-0.000253517
-8.46186e-05
8.36551e-05
0.000250626
0.00041656
0.000580758
0.000742551
0.000901285
0.00105623
0.00120683
0.00135245
0.00149249
0.00162637
0.00175359
0.00187358
0.00198589
0.00209013
0.00218582
0.0022726
0.00235025
0.00241837
0.00247671
0.00252512
0.00256343
0.00259148
0.00260921
0.00261664
0.00261372
0.00260049
0.00257702
0.00254352
0.00250009
0.00244695
0.00238431
0.00231247
0.00223174
0.00214244
0.00204492
0.00193961
0.00182693
0.00170729
0.0015812
0.00144914
0.0013116
0.00116915
0.00102229
0.000871576
0.000717617
0.000560969
0.000402235
0.000241976
8.08493e-05
-8.06269e-05
-0.000241796
-0.000402002
-0.000560768
-0.000717405
-0.000871364
-0.00102208
-0.00116894
-0.00131139
-0.00144892
-0.00158101
-0.00170711
-0.00182673
-0.00193943
-0.00204474
-0.00214226
-0.00223156
-0.00231228
-0.00238412
-0.00244677
-0.0024999
-0.00254336
-0.00257688
-0.00260033
-0.00261356
-0.00261647
-0.00260908
-0.00259134
-0.00256328
-0.00252498
-0.00247658
-0.00241819
-0.00235011
-0.00227252
-0.00218572
-0.00209004
-0.00198581
-0.00187349
-0.00175347
-0.0016263
-0.00149242
-0.0013524
-0.00120679
-0.00105619
-0.000901243
-0.000742509
-0.000580747
-0.00041656
-0.000250626
-8.36445e-05
8.26387e-05
0.000247577
0.000411467
0.000573642
0.000733393
0.000890158
0.00104321
0.00119193
0.00133571
0.00147397
0.00160617
0.00173172
0.00185015
0.00196102
0.00206387
0.00215828
0.00224387
0.00232041
0.00238758
0.00244509
0.00249278
0.00253049
0.00255806
0.00257542
0.00258264
0.00257961
0.00256644
0.00254318
0.00251
0.00246704
0.00241449
0.00235257
0.00228163
0.00220185
0.00211368
0.0020174
0.00191343
0.00180221
0.00168415
0.00155969
0.0014294
0.00129374
0.00115317
0.00100828
0.000859654
0.000707781
0.000553271
0.000396718
0.000238662
7.97058e-05
-7.95364e-05
-0.00023844
-0.000396496
-0.000553049
-0.00070758
-0.000859442
-0.00100808
-0.00115295
-0.0012935
-0.0014292
-0.0015595
-0.00168397
-0.00180201
-0.00191327
-0.00201721
-0.00211347
-0.00220167
-0.00228142
-0.00235239
-0.00241431
-0.00246686
-0.00250984
-0.00254304
-0.00256627
-0.00257947
-0.0025825
-0.0025753
-0.00255789
-0.00253031
-0.00249262
-0.00244495
-0.00238745
-0.00232029
-0.00224378
-0.00215817
-0.00206377
-0.00196096
-0.00185006
-0.00173163
-0.00160607
-0.0014739
-0.00133569
-0.00119188
-0.00104316
-0.000890136
-0.000733393
-0.0005736
-0.000411414
-0.000247524
-8.26281e-05
8.15375e-05
0.000244327
0.000406046
0.00056604
0.000723758
0.000878405
0.0010294
0.00117611
0.00131798
0.00145439
0.00158474
0.00170858
0.00182537
0.00193468
0.00203606
0.00212908
0.00221347
0.00228886
0.00235497
0.0024116
0.0024585
0.00249557
0.00252262
0.00253968
0.00254663
0.00254352
0.00253042
0.00250738
0.00247451
0.00243201
0.00238011
0.002319
0.00224894
0.00217024
0.00208321
0.00198825
0.00188572
0.00177605
0.00165962
0.00153696
0.00140855
0.00127477
0.00113627
0.000993496
0.000847001
0.000697373
0.000545129
0.000390874
0.000235126
7.85411e-05
-7.834e-05
-0.000234935
-0.000390641
-0.000544907
-0.000697172
-0.0008468
-0.000993284
-0.00113607
-0.00127457
-0.00140831
-0.00153675
-0.00165943
-0.00177586
-0.00188554
-0.00198806
-0.00208303
-0.00217002
-0.00224877
-0.00231878
-0.00237993
-0.00243187
-0.00247435
-0.00250721
-0.00253025
-0.00254339
-0.00254648
-0.00253951
-0.00252249
-0.00249542
-0.00245838
-0.00241144
-0.00235485
-0.00228874
-0.00221334
-0.002129
-0.00203595
-0.00193457
-0.0018253
-0.00170848
-0.00158466
-0.00145431
-0.00131795
-0.00117609
-0.00102935
-0.000878384
-0.000723705
-0.000566019
-0.000405983
-0.000244305
-8.15481e-05
8.04152e-05
0.000240896
0.000400329
0.00055811
0.000713551
0.000866028
0.00101489
0.00115948
0.00129932
0.00143374
0.0015622
0.00168423
0.00179929
0.00190695
0.00200679
0.00209841
0.00218146
0.00225564
0.00232069
0.00237636
0.00242245
0.00245883
0.00248539
0.00250205
0.00250874
0.00250556
0.00249252
0.00246968
0.0024372
0.00239522
0.00234397
0.00228364
0.00221458
0.00213698
0.00205119
0.00195761
0.00185657
0.00174854
0.00163388
0.00151305
0.00138656
0.00125489
0.00111849
0.000977942
0.000833724
0.000686404
0.000536564
0.000384722
0.000231462
7.73341e-05
-7.71012e-05
-0.000231251
-0.0003845
-0.000536373
-0.000686224
-0.000833512
-0.00097773
-0.00111827
-0.00125469
-0.00138636
-0.00151283
-0.00163366
-0.00174834
-0.00185641
-0.00195741
-0.00205099
-0.00213678
-0.00221438
-0.00228348
-0.00234378
-0.00239507
-0.00243704
-0.00246952
-0.00249233
-0.00250542
-0.00250859
-0.00250187
-0.00248525
-0.00245869
-0.00242231
-0.00237621
-0.00232055
-0.00225552
-0.00218134
-0.0020983
-0.00200666
-0.00190687
-0.00179921
-0.00168413
-0.00156215
-0.00143368
-0.0012993
-0.00115947
-0.00101483
-0.000865996
-0.000713509
-0.000558078
-0.000400297
-0.000240833
-8.0394e-05
7.91976e-05
0.000237296
0.000394368
0.000549798
0.00070291
0.000853079
0.000999689
0.00114214
0.00127978
0.00141215
0.00153865
0.00165876
0.001772
0.00187795
0.00197619
0.00206631
0.00214797
0.00222091
0.00228483
0.00233952
0.00238478
0.00242045
0.00244644
0.00246266
0.00246914
0.00246586
0.00245288
0.00243028
0.00239817
0.00235675
0.0023062
0.00224673
0.00217864
0.0021022
0.00201772
0.00192558
0.00182613
0.00171981
0.00160694
0.00148805
0.00136363
0.00123408
0.00109991
0.000961668
0.000819843
0.000674979
0.000527606
0.000378306
0.000227608
7.60424e-05
-7.58094e-05
-0.000227386
-0.000378084
-0.000527405
-0.000674789
-0.000819674
-0.000961457
-0.0010997
-0.00123386
-0.00136341
-0.00148786
-0.00160674
-0.00171956
-0.00182595
-0.00192537
-0.00201755
-0.002102
-0.00217846
-0.00224655
-0.00230602
-0.00235657
-0.00239803
-0.00243011
-0.00245271
-0.00246571
-0.00246901
-0.00246253
-0.00244632
-0.00242029
-0.00238462
-0.00233938
-0.00228469
-0.00222078
-0.00214786
-0.00206618
-0.00197609
-0.00187785
-0.00177193
-0.00165867
-0.00153856
-0.00141211
-0.00127977
-0.00114209
-0.000999647
-0.000853057
-0.000702879
-0.000549756
-0.000394326
-0.000237243
-7.9187e-05
7.79588e-05
0.000233569
0.000388163
0.000541116
0.000691846
0.000839632
0.000983871
0.00112404
0.00125949
0.00138971
0.00151412
0.00163226
0.00174364
0.0018478
0.00194435
0.00203291
0.00211318
0.00218477
0.00224753
0.0023012
0.00234557
0.00238051
0.00240592
0.00242176
0.00242795
0.00242459
0.00241167
0.00238929
0.0023576
0.00231675
0.00226691
0.00220834
0.00214131
0.00206606
0.00198294
0.00189228
0.00179447
0.00168989
0.00157895
0.00146208
0.00133978
0.00121244
0.00108061
0.00094477
0.000805412
0.000663089
0.000518331
0.000371625
0.000223585
7.46871e-05
-7.44648e-05
-0.000223352
-0.000371435
-0.000518109
-0.000662888
-0.000805232
-0.000944569
-0.0010804
-0.00121223
-0.00133956
-0.00146187
-0.00157874
-0.00168968
-0.00179427
-0.0018921
-0.00198275
-0.00206585
-0.00214112
-0.00220818
-0.00226674
-0.00231657
-0.00235746
-0.00238914
-0.0024115
-0.00242442
-0.00242783
-0.00242162
-0.00240579
-0.00238034
-0.00234541
-0.00230105
-0.00224742
-0.00218467
-0.00211302
-0.0020328
-0.00194424
-0.00184771
-0.00174355
-0.00163218
-0.00151404
-0.00138965
-0.00125945
-0.00112399
-0.000983871
-0.0008396
-0.000691782
-0.000541095
-0.00038811
-0.000233538
-7.79588e-05
7.66777e-05
0.000229694
0.000381726
0.000532191
0.000680369
0.000825698
0.000967534
0.00110531
0.00123849
0.00136647
0.00148876
0.00160485
0.00171427
0.0018166
0.00191139
0.00199835
0.00207713
0.00214741
0.00220893
0.00226155
0.002305
0.0023392
0.00236404
0.00237941
0.00238534
0.00238189
0.00236905
0.00234691
0.00231562
0.00227536
0.0022263
0.00216864
0.00210266
0.00202868
0.00194696
0.00185786
0.00176172
0.001659
0.00155004
0.00143521
0.00131512
0.00119008
0.00106064
0.000927289
0.000790515
0.000650807
0.000508686
0.000364743
0.000219445
7.33001e-05
-7.30884e-05
-0.000219212
-0.000364521
-0.000508506
-0.000650595
-0.000790303
-0.000927099
-0.00106045
-0.00118987
-0.00131488
-0.00143502
-0.00154981
-0.00165878
-0.00176154
-0.00185765
-0.00194677
-0.00202849
-0.00210249
-0.00216847
-0.00222611
-0.00227519
-0.00231547
-0.00234676
-0.00236888
-0.00238173
-0.00238523
-0.00237927
-0.00236388
-0.00233905
-0.00230485
-0.00226141
-0.00220881
-0.00214727
-0.00207702
-0.00199825
-0.00191129
-0.00181646
-0.00171417
-0.00160476
-0.00148869
-0.00136641
-0.00123846
-0.00110527
-0.000967492
-0.000825677
-0.000680337
-0.000532127
-0.000381705
-0.000229662
-7.66565e-05
7.5333e-05
0.000225734
0.00037513
0.000522948
0.000668531
0.00081132
0.000950699
0.00108604
0.00121685
0.00134255
0.00146265
0.0015766
0.00168402
0.00178444
0.00187746
0.00196274
0.00204002
0.00210892
0.00216919
0.0022207
0.00226325
0.00229666
0.00232088
0.0023358
0.00234146
0.00233794
0.00232516
0.00230327
0.00227241
0.00223276
0.00218448
0.00212776
0.00206292
0.00199019
0.00190991
0.00182241
0.00172804
0.00162719
0.00152023
0.00140761
0.00128975
0.00116707
0.00104011
0.000909311
0.000775152
0.000638144
0.000498828
0.00035766
0.000215136
7.18919e-05
-7.16484e-05
-0.000214945
-0.000357427
-0.000498606
-0.000637953
-0.000774961
-0.00090911
-0.0010399
-0.00116688
-0.00128952
-0.00140739
-0.00152
-0.00162698
-0.00172782
-0.00182221
-0.00190973
-0.00199002
-0.00206275
-0.00212759
-0.0021843
-0.00223261
-0.00227227
-0.00230309
-0.00232498
-0.00233779
-0.00234136
-0.00233567
-0.00232071
-0.00229652
-0.00226309
-0.00222056
-0.00216908
-0.00210879
-0.00203989
-0.00196264
-0.00187737
-0.00178431
-0.00168391
-0.00157652
-0.00146254
-0.00134248
-0.00121682
-0.00108601
-0.000950657
-0.000811288
-0.00066851
-0.000522905
-0.000375077
-0.000225703
-7.53436e-05
7.39777e-05
0.000221647
0.000368353
0.000513482
0.000656429
0.000796592
0.000933409
0.0010663
0.00119466
0.001318
0.00143585
0.00154766
0.001653
0.00175146
0.00184269
0.00192627
0.00200194
0.00206944
0.00212847
0.00217885
0.0022204
0.00225302
0.00227663
0.00229114
0.00229653
0.00229287
0.00228017
0.00225856
0.00222814
0.0021891
0.00214161
0.00208588
0.00202216
0.00195078
0.00187197
0.00178611
0.00169352
0.00159459
0.00148973
0.00137929
0.00126375
0.00114354
0.00101907
0.000890877
0.00075945
0.000625195
0.000488696
0.000350386
0.000210774
7.04308e-05
-7.01979e-05
-0.000210562
-0.000350142
-0.000488473
-0.000625004
-0.000759238
-0.000890697
-0.00101887
-0.00114331
-0.00126353
-0.00137908
-0.00148951
-0.0015944
-0.00169332
-0.00178591
-0.00187178
-0.00195058
-0.00202199
-0.00208571
-0.00214143
-0.00218894
-0.00222799
-0.00225839
-0.00228001
-0.00229272
-0.00229639
-0.00229098
-0.00227648
-0.00225291
-0.00222029
-0.00217871
-0.00212836
-0.0020693
-0.00200185
-0.00192616
-0.00184255
-0.00175135
-0.00165288
-0.00154755
-0.00143576
-0.00131795
-0.00119462
-0.00106623
-0.000933367
-0.00079656
-0.000656387
-0.000513461
-0.000368322
-0.000221594
-7.39777e-05
7.25801e-05
0.000217465
0.000361429
0.000503826
0.000644073
0.000781557
0.00091577
0.00104611
0.00117202
0.00129296
0.00140848
0.00151807
0.00162132
0.00171781
0.00180718
0.00188904
0.00196309
0.00202913
0.00208689
0.00213614
0.00217671
0.00220851
0.00223147
0.00224551
0.00225065
0.00224691
0.00223428
0.00221293
0.00218296
0.00214456
0.00209788
0.00204314
0.00198064
0.00191055
0.00183324
0.00174909
0.00165832
0.00156136
0.00145858
0.00135041
0.00123723
0.0011195
0.000997635
0.000872126
0.000743409
0.000611981
0.000478351
0.000342985
0.000206327
6.89379e-05
-6.8705e-05
-0.000206104
-0.000342741
-0.00047815
-0.000611791
-0.000743208
-0.000871925
-0.000997424
-0.00111928
-0.00123703
-0.0013502
-0.00145839
-0.00156116
-0.00165809
-0.0017489
-0.0018331
-0.00191037
-0.00198044
-0.00204296
-0.00209772
-0.00214439
-0.0021828
-0.00221277
-0.0022341
-0.00224673
-0.00225051
-0.00224537
-0.00223134
-0.00220838
-0.00217658
-0.00213599
-0.00208676
-0.00202901
-0.00196299
-0.00188893
-0.00180705
-0.00171771
-0.0016212
-0.00151798
-0.00140841
-0.00129291
-0.00117193
-0.00104604
-0.000915727
-0.000781526
-0.000644031
-0.000503773
-0.000361376
-0.000217465
-7.25907e-05
7.11614e-05
0.00021323
0.000354388
0.000493979
0.000631495
0.000766311
0.000897844
0.00102558
0.00114896
0.0012675
0.00138066
0.00148801
0.00158914
0.00168358
0.00177108
0.00185118
0.00192362
0.00198818
0.00204462
0.00209269
0.0021323
0.00216329
0.00218556
0.00219916
0.00220403
0.00220015
0.00218765
0.00216656
0.00213706
0.00209931
0.00205346
0.00199973
0.0019384
0.00186971
0.00179396
0.00171146
0.00162254
0.00152761
0.00142698
0.00132109
0.0012103
0.00109509
0.000975867
0.000853047
0.000727146
0.000598588
0.000467859
0.000335436
0.000201774
6.74238e-05
-6.71803e-05
-0.000201551
-0.000335234
-0.000467657
-0.000598397
-0.000726934
-0.000852846
-0.000975634
-0.00109487
-0.00121011
-0.00132087
-0.00142675
-0.00152739
-0.00162236
-0.00171127
-0.00179375
-0.00186953
-0.00193823
-0.00199953
-0.00205328
-0.00209915
-0.00213692
-0.0021664
-0.00218745
-0.0022
-0.00220388
-0.00219901
-0.00218545
-0.00216315
-0.00213216
-0.00209254
-0.00204448
-0.00198808
-0.00192352
-0.00185106
-0.00177096
-0.0016835
-0.00158903
-0.00148791
-0.00138058
-0.00126743
-0.00114889
-0.00102552
-0.000897791
-0.000766258
-0.000631442
-0.000493979
-0.000354335
-0.000213219
-7.11825e-05
6.97426e-05
0.000208942
0.000347241
0.000484016
0.000618736
0.000750863
0.000879697
0.00100479
0.00112564
0.0012417
0.00135249
0.00145756
0.00155654
0.00164898
0.00173452
0.00181283
0.00188367
0.00194673
0.00200181
0.00204874
0.00208733
0.00211749
0.00213914
0.00215226
0.00215682
0.00215285
0.00214045
0.00211965
0.00209061
0.00205351
0.00200852
0.00195581
0.00189569
0.00182839
0.00175416
0.00167342
0.00158637
0.00149346
0.00139502
0.00129144
0.00118308
0.0010704
0.000953823
0.000833756
0.000710692
0.000585024
0.000457228
0.000327834
0.00019721
6.59098e-05
-6.56556e-05
-0.000196999
-0.000327622
-0.000457048
-0.000584802
-0.00071047
-0.000833565
-0.0009536
-0.00107019
-0.00118288
-0.00129122
-0.00139481
-0.00149323
-0.00158618
-0.0016732
-0.00175399
-0.00182821
-0.00189548
-0.00195563
-0.00200833
-0.00205335
-0.00209048
-0.00211947
-0.00214027
-0.00215273
-0.00215669
-0.00215211
-0.002139
-0.00211736
-0.00208718
-0.00204859
-0.00200171
-0.00194662
-0.00188354
-0.00181271
-0.00173442
-0.00164886
-0.00155643
-0.00145747
-0.00135242
-0.00124159
-0.00112559
-0.00100475
-0.000879654
-0.000750799
-0.000618715
-0.000483995
-0.000347188
-0.000208931
-6.9732e-05
6.83026e-05
0.000204622
0.000340031
0.000474
0.000605893
0.000735214
0.000861401
0.000983839
0.00110211
0.00121569
0.00132408
0.00142689
0.00152367
0.00161404
0.00169766
0.00177421
0.00184336
0.00190495
0.00195865
0.00200439
0.00204201
0.00207133
0.00209233
0.00210497
0.00210925
0.00210522
0.00209286
0.00207236
0.00204382
0.00200736
0.0019632
0.00191156
0.00185267
0.00178672
0.0017141
0.00163508
0.00154991
0.00145905
0.00136282
0.00126155
0.00115566
0.00104552
0.00093162
0.000814348
0.000694101
0.000571366
0.000446566
0.000320168
0.000192605
6.43533e-05
-6.4131e-05
-0.000192382
-0.000319946
-0.000446355
-0.000571154
-0.000693889
-0.000814126
-0.000931419
-0.00104532
-0.00115545
-0.00126132
-0.00136262
-0.00145886
-0.00154972
-0.00163487
-0.0017139
-0.00178653
-0.00185245
-0.00191137
-0.00196303
-0.00200718
-0.00204366
-0.00207221
-0.00209271
-0.00210506
-0.00210911
-0.00210482
-0.00209219
-0.00207119
-0.00204186
-0.00200429
-0.00195857
-0.00190481
-0.00184324
-0.00177407
-0.00169753
-0.00161394
-0.00152356
-0.0014268
-0.00132401
-0.0012156
-0.00110206
-0.000983797
-0.000861316
-0.000735193
-0.000605861
-0.000473957
-0.00034001
-0.000204601
-6.83132e-05
6.68521e-05
0.000200249
0.000332831
0.000463909
0.000592987
0.000719523
0.000842988
0.000962812
0.0010785
0.00118955
0.00129556
0.00139607
0.00149065
0.00157895
0.00166064
0.00173538
0.00180288
0.00186295