/*--------------------------------*- C++ -*----------------------------------*\
  =========                 |
  \\      /  F ield         | OpenFOAM: The Open Source CFD Toolbox
   \\    /   O peration     | Website:  https://openfoam.org
    \\  /    A nd           | Version:  7
     \\/     M anipulation  |
\*---------------------------------------------------------------------------*/
FoamFile
{
    version     2.0;
    format      ascii;
    class       volScalarField;
    location    "0.036";
    object      gradTx;
}
// * * * * * * * * * * * * * * * * * * * * * * * * * * * * * * * * * * * * * //

dimensions      [0 -1 0 1 0 0 0];

internalField   nonuniform List<scalar> 
10000
(
0.00038882
0.00116477
0.00193566
0.00269809
0.00344875
0.00418445
0.00490196
0.00559823
0.00627031
0.00691531
0.0075306
0.00811358
0.00866186
0.00917332
0.00964587
0.0100777
0.0104673
0.010813
0.0111139
0.0113688
0.011577
0.0117379
0.0118513
0.0119169
0.0119348
0.0119053
0.0118288
0.0117061
0.011538
0.0113253
0.0110694
0.0107715
0.0104331
0.0100557
0.0096411
0.00919104
0.00870744
0.00819231
0.00764774
0.00707584
0.0064788
0.00585893
0.00521849
0.00455982
0.00388531
0.00319732
0.00249831
0.00179072
0.00107697
0.000359502
-0.000359184
-0.00107661
-0.00179037
-0.00249801
-0.00319701
-0.003885
-0.00455951
-0.00521818
-0.00585862
-0.00647853
-0.00707554
-0.00764744
-0.00819203
-0.00870716
-0.00919074
-0.00964082
-0.0100554
-0.0104328
-0.0107712
-0.0110691
-0.0113251
-0.0115377
-0.0117059
-0.0118286
-0.0119051
-0.0119346
-0.0119167
-0.0118511
-0.0117378
-0.0115769
-0.0113687
-0.0111137
-0.0108129
-0.0104671
-0.0100776
-0.00964579
-0.00917325
-0.0086618
-0.00811346
-0.00753048
-0.00691523
-0.00627021
-0.00559816
-0.00490193
-0.00418439
-0.00344873
-0.00269805
-0.00193561
-0.00116476
-0.000388809
0.000388439
0.00116358
0.00193367
0.00269533
0.00344522
0.00418014
0.00489688
0.00559237
0.00626365
0.00690789
0.00752239
0.00810458
0.00865215
0.00916284
0.00963467
0.0100658
0.0104546
0.0107998
0.0111
0.0113543
0.0115619
0.0117223
0.0118352
0.0119003
0.0119179
0.0118881
0.0118114
0.0116885
0.0115202
0.0113076
0.0110518
0.010754
0.0104158
0.0100388
0.00962463
0.00917509
0.00869213
0.00817772
0.00763394
0.00706291
0.00646682
0.00584801
0.00520866
0.00455119
0.00387788
0.00319116
0.0024935
0.00178726
0.00107486
0.000358824
-0.000358486
-0.00107455
-0.00178689
-0.00249317
-0.00319089
-0.0038776
-0.00455085
-0.00520836
-0.00584771
-0.00646654
-0.0070626
-0.00763363
-0.00817743
-0.00869185
-0.00917481
-0.00962435
-0.0100386
-0.0104156
-0.0107538
-0.0110515
-0.0113073
-0.01152
-0.0116883
-0.0118112
-0.0118879
-0.0119177
-0.0119001
-0.011835
-0.0117222
-0.0115618
-0.0113541
-0.0110998
-0.0107996
-0.0104545
-0.0100657
-0.00963457
-0.00916279
-0.00865206
-0.00810451
-0.00752229
-0.00690779
-0.00626354
-0.00559228
-0.00489682
-0.00418009
-0.0034452
-0.00269529
-0.00193367
-0.00116357
-0.000388428
0.000387645
0.00116125
0.00192976
0.00268985
0.00343816
0.00417151
0.00488666
0.00558061
0.00625032
0.00689302
0.00750597
0.00808664
0.0086327
0.00914191
0.00961226
0.010042
0.0104294
0.0107732
0.0110721
0.0113252
0.0115317
0.0116911
0.011803
0.0118672
0.0118841
0.0118536
0.0117765
0.0116533
0.0114848
0.0112722
0.0110165
0.010719
0.0103814
0.010005
0.00959171
0.00914322
0.00866148
0.00814849
0.0076063
0.00703702
0.0064429
0.00582614
0.00518902
0.00453388
0.00386304
0.0031789
0.00248386
0.0017803
0.00107069
0.000357427
-0.000357088
-0.00107034
-0.00178
-0.00248353
-0.00317861
-0.00386273
-0.00453359
-0.00518871
-0.00582582
-0.00644263
-0.00703673
-0.007606
-0.0081482
-0.00866121
-0.00914295
-0.00959142
-0.0100047
-0.0103811
-0.0107188
-0.0110162
-0.0112719
-0.0114846
-0.011653
-0.0117763
-0.0118534
-0.0118839
-0.0118671
-0.0118028
-0.0116909
-0.0115315
-0.0113251
-0.011072
-0.0107731
-0.0104293
-0.0100418
-0.00961216
-0.00914183
-0.00863261
-0.00808655
-0.00750586
-0.00689292
-0.00625025
-0.00558051
-0.00488662
-0.00417147
-0.00343814
-0.00268982
-0.00192974
-0.00116124
-0.000387655
0.000386469
0.0011577
0.00192389
0.00268161
0.00342758
0.00415855
0.00487137
0.00556295
0.00623034
0.00687069
0.00748133
0.00805972
0.00860351
0.00911047
0.00957864
0.0100062
0.0103916
0.0107334
0.0110303
0.0112816
0.0114864
0.0116442
0.0117546
0.0118176
0.0118333
0.011802
0.0117241
0.0116003
0.0114316
0.011219
0.0109635
0.0106665
0.0103296
0.00995428
0.00954226
0.00909538
0.0086155
0.00810463
0.00756482
0.00699821
0.00640696
0.0057933
0.00515953
0.00450791
0.00384078
0.00316048
0.0024694
0.00176991
0.00106441
0.000355309
-0.000354992
-0.00106407
-0.00176959
-0.00246909
-0.00316017
-0.00384045
-0.00450761
-0.00515921
-0.00579303
-0.00640668
-0.00699791
-0.00756452
-0.00810433
-0.00861521
-0.00909509
-0.00954198
-0.00995402
-0.0103294
-0.0106663
-0.0109632
-0.0112187
-0.0114314
-0.0116001
-0.0117239
-0.0118017
-0.0118331
-0.0118174
-0.0117544
-0.011644
-0.0114862
-0.0112814
-0.0110302
-0.0107332
-0.0103914
-0.0100061
-0.00957855
-0.00911036
-0.0086034
-0.00805962
-0.00748123
-0.00687061
-0.00623027
-0.00556288
-0.00487133
-0.00415852
-0.00342754
-0.00268158
-0.00192387
-0.00115771
-0.000386459
0.000384902
0.00115302
0.00191604
0.00267064
0.00341346
0.0041413
0.00485097
0.00553943
0.00620368
0.00684093
0.00744849
0.00802382
0.00856457
0.00906855
0.00953379
0.0099585
0.0103411
0.0106802
0.0109746
0.0112234
0.0114259
0.0115816
0.0116901
0.0117514
0.0117656
0.011733
0.0116542
0.0115297
0.0113606
0.0111479
0.0108928
0.0105965
0.0102605
0.00988659
0.00947632
0.00903153
0.00855413
0.00804609
0.00750948
0.00694642
0.00635902
0.00574951
0.00512018
0.00447327
0.00381107
0.00313589
0.00245009
0.00175603
0.00105604
0.000352546
-0.000352186
-0.00105574
-0.00175571
-0.00244978
-0.00313557
-0.00381076
-0.00447297
-0.00511987
-0.00574923
-0.00635872
-0.00694614
-0.00750918
-0.00804582
-0.00855383
-0.00903123
-0.00947605
-0.00988633
-0.0102603
-0.0105962
-0.0108925
-0.0111477
-0.0113604
-0.0115295
-0.0116539
-0.0117328
-0.0117654
-0.0117512
-0.0116899
-0.0115814
-0.0114257
-0.0112233
-0.0109744
-0.01068
-0.010341
-0.00995838
-0.00953369
-0.00906845
-0.00856445
-0.0080237
-0.00744839
-0.00684086
-0.00620363
-0.00553936
-0.00485094
-0.00414126
-0.00341341
-0.00267061
-0.001916
-0.001153
-0.000384892
0.000382922
0.00114714
0.00190622
0.00265691
0.00339581
0.00411972
0.00482548
0.00551
0.00617036
0.00680374
0.00740743
0.00797893
0.0085159
0.00901614
0.00947771
0.00989882
0.0102779
0.0106137
0.0109049
0.0111506
0.0113502
0.0115032
0.0116094
0.0116685
0.0116808
0.0116467
0.0115667
0.0114414
0.0112718
0.0110591
0.0108043
0.0105088
0.0101741
0.0098019
0.00939381
0.00895166
0.00847734
0.00797288
0.00744027
0.00688157
0.00629902
0.00569476
0.00507094
0.00442994
0.00377391
0.00310512
0.00242592
0.00173867
0.00104558
0.00034902
-0.000348681
-0.00104526
-0.00173837
-0.00242562
-0.00310482
-0.0037736
-0.00442962
-0.00507066
-0.00569444
-0.00629876
-0.00688129
-0.00743997
-0.00797259
-0.00847706
-0.00895137
-0.00939352
-0.00980164
-0.0101739
-0.0105085
-0.010804
-0.0110588
-0.0112716
-0.0114412
-0.0115664
-0.0116465
-0.0116806
-0.0116683
-0.0116092
-0.0115031
-0.0113501
-0.0111505
-0.0109047
-0.0106135
-0.0102778
-0.0098987
-0.00947759
-0.00901603
-0.00851576
-0.00797882
-0.00740733
-0.00680363
-0.00617031
-0.00550997
-0.00482544
-0.00411968
-0.00339577
-0.00265685
-0.00190621
-0.00114712
-0.000382933
0.000380604
0.00114007
0.00189445
0.00264042
0.00337463
0.00409384
0.00479489
0.00547472
0.00613039
0.00675909
0.00735813
0.00792504
0.00845747
0.00895321
0.00941038
0.0098272
0.0102021
0.0105338
0.0108211
0.0110632
0.0112594
0.0114092
0.0115124
0.011569
0.0115791
0.011543
0.0114616
0.0113353
0.0111652
0.0109523
0.010698
0.0104035
0.0100703
0.00970018
0.00929467
0.00885572
0.00838514
0.00788493
0.00735711
0.00680376
0.00622699
0.00562898
0.00501185
0.00437791
0.00372925
0.00306821
0.00239694
0.00171783
0.00103301
0.000344848
-0.000344531
-0.00103269
-0.00171751
-0.00239665
-0.0030679
-0.00372894
-0.00437758
-0.00501158
-0.00562866
-0.00622671
-0.00680346
-0.00735682
-0.00788465
-0.00838486
-0.00885541
-0.00929441
-0.00969989
-0.0100701
-0.0104032
-0.0106978
-0.0109521
-0.0111649
-0.0113351
-0.0114613
-0.0115428
-0.0115789
-0.0115688
-0.0115122
-0.011409
-0.0112592
-0.0110631
-0.010821
-0.0105337
-0.010202
-0.00982708
-0.00941024
-0.00895309
-0.00845734
-0.00792494
-0.00735806
-0.00675899
-0.00613034
-0.00547466
-0.00479484
-0.00409378
-0.00337459
-0.00264039
-0.00189443
-0.00114004
-0.000380572
0.000377861
0.00113185
0.00188073
0.00262119
0.00334991
0.00406364
0.00475921
0.00543357
0.00608376
0.00670702
0.00730061
0.00786217
0.00838926
0.00887977
0.0093318
0.00974358
0.0101136
0.0104406
0.0107234
0.0109612
0.0111533
0.0112994
0.0113992
0.0114527
0.0114602
0.011422
0.0113388
0.0112114
0.0110406
0.0108277
0.0105739
0.0102805
0.00994912
0.00958136
0.00917895
0.00874371
0.00827747
0.00778227
0.00726007
0.00671287
0.00614291
0.00555221
0.00494289
0.00431717
0.00367717
0.00302509
0.00236313
0.0016935
0.00101839
0.000339925
-0.000339607
-0.00101806
-0.00169318
-0.00236284
-0.00302482
-0.00367686
-0.00431686
-0.0049426
-0.0055519
-0.00614261
-0.00671263
-0.00725977
-0.00778197
-0.0082772
-0.00874339
-0.00917865
-0.00958111
-0.00994888
-0.0102802
-0.0105736
-0.0108275
-0.0110404
-0.0112111
-0.0113386
-0.0114218
-0.01146
-0.0114525
-0.011399
-0.0112993
-0.0111532
-0.010961
-0.0107233
-0.0104404
-0.0101135
-0.00974345
-0.00933168
-0.00887965
-0.00838914
-0.00786205
-0.00730056
-0.00670692
-0.00608371
-0.00543347
-0.00475915
-0.0040636
-0.00334988
-0.00262118
-0.0018807
-0.00113182
-0.00037784
0.000374717
0.00112245
0.00186504
0.00259925
0.00332169
0.00402913
0.00471844
0.00538653
0.00603046
0.0066475
0.00723492
0.00779031
0.00831132
0.00879583
0.00924198
0.00964801
0.0100124
0.010334
0.0106116
0.0108446
0.0110321
0.0111738
0.0112698
0.0113198
0.0113243
0.0112836
0.0111985
0.0110697
0.0108982
0.0106852
0.0104319
0.0101398
0.00981049
0.0094455
0.00904661
0.00861562
0.00815438
0.0076649
0.0071491
0.00660903
0.0060468
0.00546447
0.00486407
0.00424776
0.00361768
0.00297586
0.00232452
0.00166572
0.00100163
0.000334324
-0.000334017
-0.00100131
-0.0016654
-0.00232419
-0.00297558
-0.00361737
-0.00424748
-0.00486376
-0.00546417
-0.00604652
-0.00660876
-0.00714881
-0.0076646
-0.0081541
-0.00861531
-0.0090463
-0.00944521
-0.00981024
-0.0101396
-0.0104317
-0.0106849
-0.0108979
-0.0110694
-0.0111982
-0.0112834
-0.0113241
-0.0113196
-0.0112696
-0.0111737
-0.0110319
-0.0108444
-0.0106115
-0.0103338
-0.0100123
-0.00964789
-0.00924186
-0.00879571
-0.00831122
-0.00779021
-0.00723484
-0.0066474
-0.00603041
-0.00538645
-0.00471839
-0.00402908
-0.00332165
-0.00259922
-0.00186505
-0.00112241
-0.000374706
0.000371202
0.00111185
0.00184742
0.00257459
0.00328996
0.00399034
0.0046726
0.00533365
0.00597054
0.00658056
0.00716103
0.00770948
0.00822365
0.00870143
0.00914091
0.00954049
0.00989859
0.0102141
0.0104859
0.0107132
0.0108956
0.0110325
0.0111241
0.0111702
0.0111713
0.0111278
0.0110405
0.0109101
0.0107378
0.0105247
0.0102721
0.00998153
0.00965448
0.00929262
0.00889769
0.00847147
0.00801589
0.00753284
0.00702433
0.00649227
0.00593875
0.00536582
0.00477546
0.00416977
0.00355079
0.00292055
0.00228109
0.00163451
0.000982802
0.000328056
-0.000327728
-0.000982505
-0.0016342
-0.0022808
-0.00292024
-0.00355047
-0.00416949
-0.00477518
-0.00536552
-0.00593847
-0.006492
-0.00702402
-0.00753258
-0.00801561
-0.00847121
-0.00889739
-0.00929232
-0.00965422
-0.00998126
-0.0102719
-0.0105244
-0.0107376
-0.0109098
-0.0110402
-0.0111276
-0.0111711
-0.01117
-0.0111239
-0.0110323
-0.0108954
-0.0107131
-0.0104857
-0.0102139
-0.00989845
-0.00954033
-0.00914079
-0.00870129
-0.00822358
-0.0077094
-0.00716092
-0.00658048
-0.00597047
-0.00533355
-0.00467257
-0.0039903
-0.00328991
-0.00257456
-0.00184742
-0.00111185
-0.00037117
0.000367273
0.00110013
0.00182788
0.00254719
0.00325475
0.00394729
0.00462172
0.00527493
0.00590402
0.00650626
0.00707896
0.00761975
0.00812631
0.00859657
0.00902868
0.00942102
0.00977212
0.0100808
0.0103462
0.0105673
0.0107439
0.0108755
0.0109621
0.0110039
0.0110012
0.0109546
0.0108648
0.0107328
0.0105596
0.0103464
0.0100946
0.00980565
0.00948115
0.00912279
0.00873228
0.00831146
0.00786214
0.00738631
0.00688581
0.00636268
0.00581887
0.00525638
0.00467719
0.00408329
0.00347666
0.00285921
0.00223296
0.00159992
0.000961944
0.000321078
-0.000320782
-0.000961637
-0.0015996
-0.00223266
-0.0028589
-0.00347634
-0.004083
-0.0046769
-0.00525609
-0.00581861
-0.00636241
-0.00688552
-0.00738601
-0.00786188
-0.00831117
-0.008732
-0.00912251
-0.00948089
-0.00980537
-0.0100943
-0.0103461
-0.0105593
-0.0107326
-0.0108646
-0.0109544
-0.011001
-0.0110037
-0.0109619
-0.0108753
-0.0107437
-0.0105672
-0.010346
-0.0100807
-0.00977199
-0.00942088
-0.00902856
-0.00859645
-0.0081262
-0.00761966
-0.0070789
-0.00650616
-0.00590397
-0.00527486
-0.00462166
-0.00394723
-0.0032547
-0.00254717
-0.00182787
-0.00110012
-0.000367263
0.000362964
0.00108723
0.00180639
0.00251712
0.00321607
0.00390001
0.0045658
0.00521042
0.00583092
0.00642461
0.00698882
0.00752115
0.00801933
0.00848131
0.00890533
0.00928971
0.00963309
0.00993434
0.0101925
0.0104069
0.0105771
0.0107028
0.010784
0.010821
0.0108142
0.0107642
0.0106717
0.0105378
0.0103636
0.0101503
0.00989938
0.00961231
0.00929069
0.00893619
0.00855056
0.0081357
0.00769332
0.00722538
0.00673381
0.00622047
0.00568738
0.00513638
0.00456944
0.00398847
0.00339535
0.00279199
0.00218022
0.00156199
0.000939127
0.000313434
-0.000313169
-0.000938798
-0.00156169
-0.0021799
-0.00279168
-0.00339505
-0.00398818
-0.00456914
-0.00513609
-0.0056871
-0.00622022
-0.00673352
-0.00722512
-0.00769304
-0.00813539
-0.00855032
-0.0089359
-0.00929042
-0.00961205
-0.0098991
-0.01015
-0.0103633
-0.0105376
-0.0106715
-0.010764
-0.010814
-0.0108208
-0.0107838
-0.0107026
-0.0105769
-0.0104067
-0.0101924
-0.00993418
-0.00963296
-0.00928958
-0.0089052
-0.00848118
-0.00801923
-0.00752104
-0.00698874
-0.00642451
-0.00583087
-0.00521036
-0.00456575
-0.00389995
-0.003216
-0.0025171
-0.00180638
-0.00108721
-0.000362964
0.000358295
0.00107319
0.001783
0.00248438
0.00317395
0.00384854
0.00450494
0.00514018
0.00575134
0.0063357
0.00689061
0.00741373
0.00790279
0.00835577
0.00877092
0.00914664
0.00948157
0.00977471
0.0100251
0.0102321
0.0103953
0.0105145
0.0105899
0.0106217
0.0106104
0.0105566
0.0104612
0.0103253
0.0101501
0.00993672
0.00968675
0.00940174
0.0090833
0.00873304
0.00835285
0.00794445
0.00750967
0.00705044
0.0065686
0.00606597
0.00554452
0.00500606
0.00445247
0.00388557
0.00330717
0.00271904
0.00212304
0.00152086
0.00091434
0.000305165
-0.000304868
-0.000914033
-0.00152055
-0.00212273
-0.00271874
-0.00330686
-0.00388529
-0.00445216
-0.0050058
-0.00554423
-0.00606569
-0.00656831
-0.00705014
-0.0075094
-0.00794418
-0.00835257
-0.00873279
-0.00908301
-0.00940146
-0.00968649
-0.00993646
-0.0101498
-0.0103251
-0.010461
-0.0105564
-0.0106102
-0.0106215
-0.0105897
-0.0105143
-0.0103951
-0.0102319
-0.0100249
-0.00977455
-0.00948148
-0.00914649
-0.00877077
-0.00835564
-0.00790266
-0.00741361
-0.00689055
-0.00633562
-0.00575129
-0.00514012
-0.0045049
-0.00384845
-0.00317391
-0.00248433
-0.00178296
-0.00107318
-0.000358295
0.000353255
0.00105807
0.00175774
0.00244897
0.00312843
0.0037929
0.00443918
0.00506429
0.00566535
0.00623958
0.00678447
0.00729761
0.00777677
0.00822003
0.00862558
0.00899193
0.00931774
0.00960203
0.00984397
0.010043
0.0101986
0.0103109
0.0103799
0.0104061
0.0103899
0.0103321
0.0102336
0.0100956
0.00991919
0.00970585
0.00945701
0.00917428
0.00885928
0.00851374
0.00813944
0.00773813
0.00731164
0.00686186
0.00639058
0.00589958
0.00539074
0.00486582
0.00432665
0.0037749
0.00321236
0.00264067
0.00206155
0.0014767
0.000887722
0.000296292
-0.000295985
-0.000887405
-0.00147641
-0.00206125
-0.00264035
-0.00321205
-0.00377462
-0.00432635
-0.00486557
-0.00539045
-0.00589929
-0.00639027
-0.00686157
-0.00731138
-0.00773787
-0.00813917
-0.00851348
-0.008859
-0.009174
-0.00945674
-0.00970559
-0.00991895
-0.0100953
-0.0102334
-0.0103319
-0.0103897
-0.0104059
-0.0103798
-0.0103107
-0.0101984
-0.0100427
-0.0098438
-0.0096019
-0.00931763
-0.00899181
-0.00862544
-0.00821989
-0.00777665
-0.00729747
-0.00678442
-0.00623952
-0.00566528
-0.00506424
-0.0044391
-0.00379282
-0.00312841
-0.00244893
-0.00175771
-0.00105804
-0.000353234
0.000347823
0.00104181
0.00173065
0.00241099
0.00307961
0.00373318
0.00436858
0.00498282
0.00557301
0.00613643
0.0066705
0.00717292
0.00764147
0.00807424
0.00846948
0.00882572
0.00914175
0.00941656
0.0096494
0.00983974
0.0099873
0.0100921
0.0101544
0.0101745
0.0101531
0.010091
0.00998919
0.00984891
0.00967142
0.00945809
0.00921053
0.00893034
0.00861917
0.00827876
0.00791085
0.00751728
0.00709979
0.00666022
0.00620029
0.00572183
0.00522654
0.00471621
0.00419241
0.0036569
0.00311129
0.00255714
0.00199606
0.00142962
0.000859368
0.000286805
-0.000286498
-0.000859071
-0.00142933
-0.00199576
-0.00255683
-0.00311098
-0.00365661
-0.00419214
-0.00471589
-0.00522627
-0.00572155
-0.00620001
-0.00665991
-0.00709951
-0.00751702
-0.00791062
-0.00827849
-0.0086189
-0.00893006
-0.00921027
-0.00945785
-0.00967116
-0.00984865
-0.00998895
-0.0100908
-0.0101528
-0.0101743
-0.0101542
-0.0100919
-0.00998714
-0.00983954
-0.00964924
-0.00941641
-0.00914162
-0.00882561
-0.00846936
-0.00807409
-0.00764135
-0.00717281
-0.00667043
-0.00613636
-0.00557295
-0.00498275
-0.00436853
-0.00373312
-0.00307955
-0.00241095
-0.0017306
-0.00104177
-0.000347834
0.000342053
0.00102443
0.00170172
0.00237052
0.00302751
0.00366944
0.00429327
0.00489589
0.00547447
0.00602631
0.00654887
0.00703983
0.00749703
0.00791859
0.00830281
0.00864828
0.00895382
0.00921849
0.00944162
0.00962274
0.00976167
0.00985852
0.00991351
0.0099272
0.00990026
0.00983364
0.00972839
0.00958577
0.00940713
0.00919399
0.00894792
0.00867053
0.00836357
0.00802874
0.00766783
0.00728261
0.00687478
0.0064462
0.0059985
0.00553339
0.00505258
0.0045577
0.00405031
0.00353205
0.00300435
0.00246879
0.00192682
0.00137988
0.000829372
0.000276789
-0.000276514
-0.000829076
-0.00137956
-0.00192651
-0.00246851
-0.00300404
-0.00353175
-0.00405004
-0.0045574
-0.00505229
-0.00553311
-0.00599819
-0.00644589
-0.00687452
-0.00728232
-0.00766758
-0.0080285
-0.00836331
-0.00867026
-0.00894764
-0.00919373
-0.00940689
-0.00958551
-0.00972814
-0.0098334
-0.00990004
-0.00992696
-0.0099133
-0.00985832
-0.00976149
-0.00962255
-0.00944146
-0.00921834
-0.00895368
-0.00864817
-0.00830268
-0.00791848
-0.00749692
-0.00703971
-0.00654878
-0.00602624
-0.00547442
-0.00489582
-0.0042932
-0.0036694
-0.00302744
-0.00237046
-0.00170168
-0.00102441
-0.000342053
0.000335891
0.00100605
0.00167103
0.00232752
0.00297223
0.00360187
0.00421333
0.00480364
0.00536989
0.00590944
0.00641975
0.00689853
0.00734368
0.00775332
0.00812584
0.00845986
0.00875423
0.00900813
0.00922097
0.0093923
0.00952206
0.00961047
0.00965777
0.00966467
0.00963192
0.00956055
0.00945171
0.00930675
0.00912704
0.00891422
0.00866982
0.0083956
0.00809326
0.00776454
0.0074112
0.00703494
0.00663751
0.00622062
0.00578593
0.00533502
0.00486956
0.00439102
0.00390098
0.00340085
0.00289207
0.00237607
0.00185411
0.00132766
0.000797937
0.000266286
-0.000266
-0.00079763
-0.00132735
-0.00185382
-0.00237574
-0.00289177
-0.00340055
-0.00390069
-0.00439074
-0.00486925
-0.00533473
-0.00578563
-0.00622032
-0.00663724
-0.00703466
-0.0074109
-0.00776429
-0.00809302
-0.00839534
-0.00866954
-0.00891395
-0.0091268
-0.00930649
-0.00945148
-0.00956031
-0.00963169
-0.00966443
-0.00965757
-0.00961026
-0.00952188
-0.00939212
-0.0092208
-0.009008
-0.00875411
-0.00845972
-0.00812571
-0.00775319
-0.00734359
-0.00689844
-0.00641966
-0.00590936
-0.00536983
-0.00480356
-0.00421328
-0.00360181
-0.00297216
-0.00232748
-0.00167097
-0.00100602
-0.000335912
0.000329422
0.000986624
0.00163864
0.00228216
0.00291388
0.00353049
0.00412894
0.00470622
0.00525947
0.00578601
0.00628339
0.0067493
0.00718167
0.00757874
0.00793887
0.00826077
0.0085434
0.00878589
0.00898779
0.00914882
0.00926897
0.00934842
0.00938768
0.00938746
0.00934867
0.00927241
0.00915986
0.00901255
0.0088319
0.00861956
0.0083772
0.0081065
0.00780924
0.00748713
0.00714192
0.00677527
0.00638889
0.00598447
0.00556355
0.00512761
0.00467829
0.00421694
0.00374507
0.00326396
0.00277494
0.00227933
0.00177836
0.00127324
0.000765157
0.000255359
-0.000255052
-0.000764903
-0.00127293
-0.00177805
-0.002279
-0.00277463
-0.00326368
-0.00374479
-0.00421668
-0.00467798
-0.00512731
-0.00556322
-0.00598417
-0.00638863
-0.006775
-0.00714162
-0.00748686
-0.00780898
-0.00810623
-0.00837691
-0.0086193
-0.00883165
-0.0090123
-0.00915963
-0.00927217
-0.00934843
-0.00938725
-0.00938748
-0.00934821
-0.00926876
-0.00914865
-0.00898764
-0.00878575
-0.00854323
-0.00826066
-0.00793877
-0.00757862
-0.00718157
-0.00674919
-0.00628328
-0.00578594
-0.00525939
-0.00470613
-0.00412889
-0.00353044
-0.0029138
-0.00228212
-0.00163857
-0.000986571
-0.000329432
0.000322635
0.000966189
0.00160459
0.00223447
0.00285252
0.0034555
0.00404027
0.00460385
0.00514342
0.00565628
0.00614004
0.0065924
0.00701137
0.00739517
0.00774228
0.00805145
0.00832168
0.00855222
0.00874265
0.00889285
0.00900286
0.00907299
0.00910388
0.00909628
0.00905124
0.00896992
0.00885371
0.00870411
0.00852265
0.00831108
0.00807105
0.00780431
0.0075126
0.00719761
0.00686113
0.00650474
0.00613008
0.00573876
0.00533231
0.00491212
0.00447968
0.00403631
0.00358335
0.00312204
0.00265356
0.00217914
0.00169987
0.00121688
0.000731244
0.00024402
-0.000243734
-0.000730947
-0.00121658
-0.00169956
-0.00217882
-0.00265326
-0.00312174
-0.00358307
-0.00403602
-0.00447941
-0.00491184
-0.00533199
-0.00573847
-0.00612979
-0.00650445
-0.00686084
-0.00719736
-0.00751231
-0.00780402
-0.00807077
-0.00831082
-0.00852243
-0.00870386
-0.00885346
-0.0089697
-0.00905101
-0.00909604
-0.00910367
-0.00907281
-0.00900267
-0.0088927
-0.00874253
-0.00855206
-0.00832153
-0.0080513
-0.00774217
-0.00739505
-0.00701126
-0.0065923
-0.00613993
-0.00565618
-0.00514333
-0.00460376
-0.0040402
-0.00345544
-0.00285248
-0.00223445
-0.00160455
-0.000966158
-0.000322614
0.000315499
0.000944844
0.001569
0.00218461
0.00278837
0.00337704
0.00394749
0.00449674
0.00502196
0.00552053
0.00599004
0.00642823
0.00683312
0.00720304
0.00753651
0.00783233
0.00808959
0.00830764
0.00848613
0.00862501
0.00872447
0.00878493
0.00880711
0.00879188
0.00874047
0.0086541
0.00853425
0.00838246
0.00820049
0.00798995
0.00775261
0.00749025
0.00720459
0.00689729
0.00657003
0.00622452
0.00586223
0.00548472
0.00509337
0.00468961
0.00427473
0.00385002
0.00341665
0.00297579
0.00252854
0.00207598
0.00161908
0.00115889
0.000696325
0.000232352
-0.000232055
-0.000696028
-0.00115859
-0.00161879
-0.00207566
-0.00252823
-0.00297549
-0.00341636
-0.00384972
-0.00427444
-0.0046893
-0.00509306
-0.00548439
-0.00586194
-0.00622424
-0.00656978
-0.006897
-0.00720431
-0.00748996
-0.00775233
-0.00798972
-0.00820024
-0.00838223
-0.00853401
-0.00865387
-0.00874023
-0.00879169
-0.0088069
-0.00878474
-0.00872429
-0.00862487
-0.00848597
-0.0083075
-0.00808944
-0.00783219
-0.00753639
-0.00720295
-0.006833
-0.00642809
-0.00598993
-0.00552043
-0.00502188
-0.00449665
-0.00394741
-0.00337697
-0.00278832
-0.00218459
-0.00156896
-0.000944791
-0.000315509
0.000308108
0.000922609
0.00153192
0.00213269
0.00272155
0.00329531
0.00385083
0.00438514
0.00489543
0.00537909
0.00583372
0.00625714
0.00664741
0.00700284
0.00732208
0.00760401
0.00784775
0.00805278
0.00821886
0.00834602
0.00843454
0.00848501
0.00849828
0.00847531
0.00841743
0.00832601
0.00820262
0.00804892
0.00786664
0.0076575
0.00742325
0.00716571
0.00688656
0.00658748
0.00627009
0.00593596
0.00558663
0.0052235
0.00484793
0.00446115
0.00406445
0.00365899
0.00324582
0.00282598
0.00240052
0.00197036
0.00153642
0.00109955
0.000660601
0.000220451
-0.000220133
-0.000660305
-0.00109923
-0.00153613
-0.00197006
-0.00240023
-0.0028257
-0.0032455
-0.00365868
-0.00406415
-0.00446085
-0.0048476
-0.0052232
-0.00558635
-0.00593568
-0.00626982
-0.0065872
-0.00688627
-0.00716544
-0.007423
-0.00765724
-0.00786637
-0.00804869
-0.0082024
-0.00832579
-0.00841719
-0.00847509
-0.00849806
-0.00848486
-0.00843436
-0.00834587
-0.00821872
-0.00805264
-0.00784761
-0.00760386
-0.00732196
-0.00700271
-0.00664728
-0.00625702
-0.00583362
-0.005379
-0.00489533
-0.00438506
-0.00385075
-0.00329523
-0.00272151
-0.00213264
-0.00153189
-0.000922557
-0.000308098
0.000300411
0.000899538
0.00149347
0.00207882
0.00265226
0.00321054
0.00375057
0.00426935
0.00476419
0.00523234
0.00567154
0.00607962
0.00645465
0.00679511
0.00709962
0.00736709
0.00759683
0.00778839
0.00794168
0.00805671
0.008134
0.00817425
0.0081784
0.00814761
0.00808331
0.00798694
0.0078602
0.0077048
0.00752254
0.00731515
0.00708445
0.00683217
0.00656006
0.00626968
0.00596266
0.00564051
0.00530466
0.00495646
0.00459714
0.00422792
0.00384992
0.0034642
0.00307171
0.00267339
0.00227018
0.00186286
0.00145227
0.00103917
0.000624274
0.000208328
-0.000207989
-0.000623967
-0.00103886
-0.00145198
-0.00186256
-0.00226989
-0.00267308
-0.00307139
-0.00346389
-0.00384962
-0.00422764
-0.00459685
-0.00495614
-0.00530437
-0.00564027
-0.00596239
-0.00626939
-0.00655975
-0.00683189
-0.00708419
-0.0073149
-0.0075223
-0.00770457
-0.00785996
-0.00798671
-0.00808308
-0.00814741
-0.00817819
-0.00817408
-0.00813384
-0.00805654
-0.00794151
-0.00778828
-0.0075967
-0.00736695
-0.00709947
-0.00679498
-0.00645454
-0.00607947
-0.00567143
-0.00523225
-0.00476411
-0.00426929
-0.00375049
-0.00321047
-0.00265218
-0.00207877
-0.00149342
-0.000899507
-0.000300421
0.00029248
0.000875716
0.00145374
0.00202319
0.00258068
0.00312298
0.00364699
0.00414976
0.00462855
0.00508074
0.00550396
0.00589618
0.00625552
0.00658045
0.00686971
0.00712231
0.00733763
0.00751534
0.0076554
0.00775806
0.00782387
0.00785373
0.00784868
0.00781009
0.00773941
0.00763829
0.00750844
0.00735163
0.00716974
0.00696454
0.00673777
0.00649122
0.00622658
0.00594542
0.0056493
0.0053396
0.00501772
0.00468494
0.00434235
0.00399111
0.00363223
0.00326659
0.00289519
0.00251875
0.00213809
0.00175399
0.00136708
0.000978027
0.000587491
0.000196046
-0.000195718
-0.000587174
-0.000977741
-0.00136677
-0.00175369
-0.00213782
-0.00251843
-0.00289486
-0.00326629
-0.00363192
-0.0039908
-0.00434204
-0.00468464
-0.00501745
-0.00533933
-0.00564903
-0.00594514
-0.00622632
-0.00649094
-0.00673748
-0.00696426
-0.00716949
-0.0073514
-0.0075082
-0.00763806
-0.00773921
-0.00780989
-0.0078485
-0.00785355
-0.0078237
-0.00775787
-0.00765522
-0.0075152
-0.00733751
-0.00712218
-0.00686957
-0.00658031
-0.0062554
-0.00589606
-0.00550384
-0.00508063
-0.00462845
-0.00414968
-0.00364693
-0.0031229
-0.0025806
-0.00202314
-0.0014537
-0.000875684
-0.00029247
0.000284307
0.000851194
0.0014129
0.00196592
0.00250703
0.0030329
0.00354042
0.00402673
0.00448898
0.00492469
0.00533152
0.00570744
0.00605059
0.00635956
0.00663317
0.0068705
0.00707104
0.00723451
0.00736108
0.00745112
0.00750532
0.00752467
0.00751047
0.00746413
0.00738727
0.00728159
0.00714892
0.00699105
0.0068099
0.00660725
0.00638487
0.00614449
0.00588783
0.00561634
0.00533153
0.00503476
0.00472726
0.00441027
0.00408478
0.00375185
0.00341237
0.00306718
0.00271708
0.00236279
0.00200497
0.00164423
0.00128122
0.000916447
0.000550413
0.000183658
-0.000183361
-0.000550095
-0.00091614
-0.00128093
-0.00164393
-0.00200464
-0.00236246
-0.00271676
-0.00306688
-0.00341206
-0.00375154
-0.00408449
-0.00440996
-0.00472698
-0.00503448
-0.00533126
-0.00561607
-0.00588757
-0.00614424
-0.00638458
-0.00660694
-0.00680964
-0.0069908
-0.00714867
-0.00728139
-0.00738707
-0.00746394
-0.00751031
-0.00752451
-0.0075051
-0.00745094
-0.00736092
-0.00723436
-0.00707087
-0.00687035
-0.00663303
-0.00635945
-0.00605046
-0.0057073
-0.00533139
-0.00492459
-0.00448891
-0.00402664
-0.00354038
-0.00303282
-0.00250694
-0.00196589
-0.00141285
-0.000851173
-0.000284296
0.000275953
0.000826101
0.00137101
0.0019073
0.00243154
0.00294058
0.00343125
0.00390062
0.00434599
0.0047648
0.0051548
0.00551397
0.0058406
0.00613323
0.00639081
0.00661251
0.00679794
0.00694697
0.00705981
0.00713709
0.00717961
0.0071885
0.00716522
0.0071113
0.00702847
0.00691849
0.00678328
0.00662473
0.00644471
0.00624505
0.0060275
0.00579376
0.00554547
0.00528406
0.00501099
0.00472746
0.00443468
0.0041338
0.00382568
0.00351128
0.00319142
0.00286683
0.00253822
0.00220621
0.00187134
0.00153411
0.00119508
0.000854656
0.000513228
0.000171259
-0.000170942
-0.000512931
-0.000854339
-0.00119478
-0.00153382
-0.00187101
-0.00220589
-0.00253791
-0.00286652
-0.00319112
-0.00351097
-0.00382539
-0.00413347
-0.00443441
-0.0047272
-0.0050107
-0.00528378
-0.00554519
-0.00579349
-0.00602722
-0.00624475
-0.00644444
-0.00662451
-0.00678307
-0.00691828
-0.00702826
-0.0071111
-0.00716502
-0.00718833
-0.00717941
-0.00713692
-0.00705967
-0.0069468
-0.0067978
-0.00661237
-0.00639065
-0.00613309
-0.00584045
-0.00551385
-0.00515468
-0.0047647
-0.0043459
-0.00390057
-0.00343117
-0.00294051
-0.00243148
-0.00190724
-0.00137099
-0.000826079
-0.000275942
0.000267408
0.000800467
0.00132832
0.00184745
0.00235454
0.00284638
0.00331981
0.00377196
0.00420004
0.00460164
0.00497446
0.00531658
0.00562627
0.00590228
0.00614352
0.00634934
0.00651944
0.00665382
0.00675286
0.00681731
0.00684813
0.00684668
0.0068145
0.00675319
0.00666462
0.00655072
0.00641335
0.00625447
0.00607601
0.00587973
0.00566741
0.00544074
0.00520118
0.00495023
0.00468916
0.0044192
0.00414142
0.00385678
0.00356622
0.0032705
0.00297034
0.00266648
0.00235942
0.00204972
0.0017378
0.00142412
0.00110903
0.000792929
0.000476107
0.000158872
-0.000158565
-0.0004758
-0.000792632
-0.00110874
-0.0014238
-0.00173747
-0.00204939
-0.00235909
-0.00266617
-0.00297008
-0.00327019
-0.00356591
-0.0038565
-0.00414112
-0.00441892
-0.00468888
-0.00494995
-0.0052009
-0.00544045
-0.00566713
-0.00587946
-0.00607571
-0.00625425
-0.00641314
-0.00655051
-0.00666446
-0.00675298
-0.00681427
-0.00684648
-0.00684796
-0.00681712
-0.00675273
-0.00665368
-0.00651931
-0.00634921
-0.00614337
-0.00590214
-0.00562613
-0.00531643
-0.00497434
-0.00460154
-0.00419997
-0.00377186
-0.00331976
-0.00284631
-0.00235449
-0.0018474
-0.00132826