/*--------------------------------*- C++ -*----------------------------------*\
  =========                 |
  \\      /  F ield         | OpenFOAM: The Open Source CFD Toolbox
   \\    /   O peration     | Website:  https://openfoam.org
    \\  /    A nd           | Version:  7
     \\/     M anipulation  |
\*---------------------------------------------------------------------------*/
FoamFile
{
    version     2.0;
    format      ascii;
    class       volScalarField;
    location    "0.036";
    object      gradTy;
}
// * * * * * * * * * * * * * * * * * * * * * * * * * * * * * * * * * * * * * //

dimensions      [0 -1 0 1 0 0 0];

internalField   nonuniform List<scalar> 
10000
(
0.00038883
0.000388428
0.000387655
0.000386469
0.000384892
0.000382933
0.000380582
0.00037784
0.000374706
0.00037118
0.000367295
0.000362985
0.000358306
0.000353266
0.000347834
0.000342053
0.000335891
0.000329432
0.000322635
0.00031552
0.000308108
0.000300432
0.000292491
0.000284317
0.000275942
0.000267398
0.000258737
0.000249959
0.000241119
0.000232246
0.000223394
0.000214606
0.000205903
0.000197369
0.000189015
0.000180916
0.00017307
0.000165595
0.00015849
0.000151788
0.000145573
0.000139813
0.000134615
0.000129998
0.000125975
0.000122597
0.000119823
0.000117769
0.000116361
0.000115662
0.000115684
0.000116372
0.000117759
0.000119855
0.000122587
0.000125975
0.000129998
0.000134636
0.000139813
0.000145541
0.000151788
0.00015849
0.000165595
0.000173091
0.000180916
0.000189015
0.00019738
0.000205924
0.000214606
0.000223394
0.000232246
0.000241129
0.000249981
0.000258737
0.000267419
0.000275953
0.000284317
0.000292491
0.000300421
0.000308119
0.00031552
0.000322645
0.000329443
0.000335912
0.000342032
0.000347823
0.000353266
0.000358306
0.000362985
0.000367273
0.00037118
0.000374706
0.000377851
0.000380572
0.000382954
0.000384902
0.00038648
0.000387655
0.000388428
0.00038882
0.00116478
0.0011636
0.00116124
0.00115771
0.00115301
0.00114714
0.00114006
0.00113184
0.00112245
0.00111187
0.00110013
0.00108723
0.00107319
0.00105806
0.0010418
0.00102443
0.00100602
0.000986592
0.000966179
0.000944823
0.000922588
0.000899517
0.000875705
0.000851194
0.000826069
0.000800467
0.000774442
0.000748121
0.000721577
0.000694969
0.000668415
0.00064203
0.000615941
0.000590318
0.000565257
0.000540915
0.000517452
0.000494953
0.000473618
0.000453512
0.000434803
0.000417608
0.000402012
0.000388153
0.000376061
0.000365897
0.00035766
0.000351434
0.000347262
0.000345155
0.000345155
0.000347252
0.000351423
0.000357649
0.000365886
0.000376072
0.000388132
0.000402012
0.000417598
0.000434803
0.000453512
0.000473597
0.000494953
0.000517431
0.000540905
0.000565246
0.000590308
0.000615931
0.000642019
0.000668394
0.000694938
0.000721566
0.000748099
0.000774442
0.000800467
0.000826079
0.000851194
0.000875694
0.000899517
0.000922578
0.000944802
0.000966189
0.000986592
0.00100603
0.00102443
0.00104178
0.00105805
0.0010732
0.00108723
0.00110013
0.00111188
0.00112242
0.00113183
0.00114007
0.00114714
0.001153
0.00115774
0.00116124
0.00116358
0.00116476
0.00193565
0.00193368
0.00192977
0.0019239
0.00191605
0.00190624
0.00189446
0.00188073
0.00186505
0.00184742
0.00182785
0.00180637
0.00178299
0.00175773
0.00173063
0.00170171
0.00167102
0.00163864
0.0016046
0.001569
0.0015319
0.00149344
0.00145374
0.00141287
0.00137101
0.00132829
0.00128489
0.00124096
0.00119671
0.00115234
0.00110807
0.00106405
0.00102059
0.000977847
0.000936067
0.000895451
0.00085634
0.000818848
0.000783241
0.00074973
0.000718549
0.000689855
0.000663862
0.000640717
0.0006206
0.000603596
0.000589895
0.000579498
0.000572552
0.000569047
0.000569037
0.000572541
0.000579508
0.000589853
0.000603575
0.000620579
0.000640706
0.000663841
0.000689834
0.000718538
0.000749709
0.00078322
0.000818827
0.000856297
0.000895462
0.000936024
0.000977804
0.00102056
0.00106405
0.00110802
0.00115232
0.0011967
0.00124096
0.00128485
0.00132826
0.00137099
0.00141284
0.0014537
0.00149342
0.00153189
0.00156897
0.00160456
0.00163861
0.00167099
0.00170169
0.00173059
0.00175772
0.001783
0.0018064
0.00182787
0.00184743
0.00186506
0.00188072
0.00189447
0.00190621
0.00191602
0.00192387
0.00192975
0.00193367
0.00193561
0.00269809
0.00269534
0.00268985
0.00268161
0.00267064
0.00265692
0.00264045
0.00262122
0.00259927
0.00257458
0.00254717
0.00251711
0.00248436
0.00244895
0.00241101
0.0023705
0.00232753
0.00228216
0.00223448
0.00218463
0.00213267
0.00207882
0.00202316
0.00196593
0.00190727
0.00184742
0.00178664
0.00172509
0.00166311
0.00160096
0.00153888
0.00147725
0.00141629
0.00135642
0.00129789
0.00124105
0.00118621
0.00113369
0.00108381
0.00103688
0.000993178
0.000952997
0.000916564
0.000884154
0.000855948
0.000832178
0.00081294
0.000798392
0.000788641
0.000783749
0.000783781
0.000788651
0.000798381
0.000812929
0.000832168
0.000855937
0.000884154
0.000916564
0.000952986
0.000993157
0.00103686
0.00108379
0.00113367
0.00118618
0.00124103
0.00129789
0.00135641
0.00141629
0.00147721
0.00153887
0.00160091
0.0016631
0.00172507
0.00178657
0.0018474
0.00190723
0.0019659
0.00202314
0.00207879
0.00213264
0.00218459
0.00223444
0.00228213
0.00232751
0.00237047
0.00241096
0.00244894
0.00248435
0.0025171
0.0025472
0.00257457
0.00259925
0.00262119
0.00264039
0.00265688
0.00267062
0.00268159
0.00268982
0.00269533
0.00269809
0.00344876
0.00344522
0.00343817
0.00342757
0.00341346
0.00339581
0.00337464
0.00334992
0.00332168
0.00328994
0.00325473
0.00321604
0.00317393
0.00312843
0.00307959
0.00302749
0.0029722
0.00291386
0.00285251
0.00278837
0.00272156
0.00265224
0.00258063
0.002507
0.00243154
0.00235455
0.00227627
0.00219712
0.00211736
0.00203735
0.00195748
0.00187816
0.00179974
0.00172267
0.00164736
0.00157421
0.00150363
0.00143606
0.00137188
0.00131149
0.00125526
0.00120357
0.00115671
0.00111499
0.00107873
0.00104811
0.00102336
0.00100468
0.000992119
0.00098584
0.00098583
0.00099213
0.00100466
0.00102335
0.00104811
0.00107872
0.00111498
0.00115669
0.00120355
0.00125526
0.00131148
0.00137188
0.00143605
0.00150362
0.00157418
0.00164734
0.00172265
0.00179973
0.00187813
0.00195747
0.00203733
0.00211733
0.00219708
0.00227627
0.00235451
0.00243151
0.00250697
0.00258063
0.00265222
0.00272153
0.00278835
0.0028525
0.00291381
0.00297218
0.00302747
0.00307958
0.00312842
0.00317392
0.00321603
0.00325472
0.00328995
0.00332169
0.00334992
0.0033746
0.0033958
0.00341344
0.00342757
0.00343816
0.00344523
0.00344876
0.00418444
0.00418013
0.00417151
0.00415855
0.00414129
0.00411971
0.00409382
0.00406362
0.00402915
0.00399034
0.00394728
0.00389998
0.0038485
0.00379288
0.00373317
0.00366947
0.00360187
0.00353049
0.00345551
0.00337704
0.00329532
0.00321052
0.00312298
0.00303286
0.00294058
0.00284636
0.00275063
0.00265378
0.00255619
0.00245832
0.00236063
0.00226355
0.00216762
0.00207334
0.00198119
0.0018917
0.00180538
0.00172272
0.00164421
0.00157034
0.00150157
0.00143833
0.00138101
0.00133
0.00128565
0.0012482
0.00121797
0.00119508
0.00117976
0.00117204
0.00117204
0.00117973
0.00119508
0.00121794
0.00124819
0.00128562
0.00133
0.00138098
0.00143831
0.00150156
0.00157034
0.00164421
0.0017227
0.00180538
0.0018917
0.00198119
0.00207332
0.00216762
0.00226353
0.0023606
0.00245828
0.00255615
0.00265374
0.00275061
0.00284633
0.00294053
0.00303284
0.00312293
0.00321051
0.00329528
0.00337701
0.00345546
0.00353047
0.00360183
0.00366944
0.00373315
0.00379288
0.0038485
0.0039
0.00394727
0.00399033
0.00402911
0.00406363
0.00409382
0.00411971
0.00414129
0.00415855
0.00417152
0.00418013
0.00418446
0.00490195
0.00489687
0.00488666
0.00487137
0.00485095
0.00482546
0.00479488
0.00475919
0.00471842
0.00467259
0.00462173
0.00456579
0.00450493
0.00443915
0.00436858
0.00429326
0.00421333
0.00412893
0.00404025
0.00394747
0.00385082
0.00375057
0.00364697
0.00354043
0.00343124
0.0033198
0.00320655
0.00309198
0.00297655
0.00286076
0.00274517
0.00263033
0.00251689
0.00240534
0.00229634
0.00219049
0.00208837
0.00199062
0.00189779
0.00181042
0.00172908
0.00165429
0.00158654
0.00152624
0.00147375
0.00142952
0.00139373
0.0013667
0.00134857
0.00133951
0.00133949
0.00134856
0.00136669
0.00139374
0.00142948
0.00147374
0.00152621
0.00158652
0.00165427
0.00172906
0.0018104
0.00189776
0.00199059
0.00208836
0.00219045
0.00229634
0.00240533
0.00251685
0.00263033
0.00274514
0.00286073
0.00297649
0.00309196
0.00320653
0.00331978
0.00343119
0.00354039
0.00364696
0.00375053
0.00385081
0.00394746
0.00404025
0.00412893
0.00421332
0.00429323
0.00436856
0.00443916
0.00450494
0.00456579
0.0046217
0.00467257
0.00471841
0.00475918
0.00479489
0.00482547
0.00485097
0.00487137
0.00488664
0.00489687
0.00490195
0.00559822
0.00559236
0.00558059
0.00556294
0.00553942
0.00551
0.0054747
0.00543357
0.0053865
0.00533364
0.00527491
0.00521043
0.00514018
0.00506428
0.0049828
0.00489587
0.00480361
0.00470619
0.0046038
0.00449671
0.00438512
0.00426936
0.00414976
0.00402672
0.00390061
0.00377192
0.00364115
0.00350882
0.0033755
0.00324179
0.00310833
0.00297571
0.00284466
0.00271587
0.00259
0.0024678
0.0023499
0.00223705
0.00212985
0.00202901
0.00193513
0.00184883
0.00177064
0.00170102
0.0016405
0.00158944
0.00154819
0.00151698
0.00149608
0.0014856
0.00148558
0.00149608
0.00151699
0.00154819
0.00158945
0.0016405
0.001701
0.00177061
0.0018488
0.00193512
0.00202899
0.00212982
0.00223699
0.00234987
0.00246776
0.00258997
0.00271587
0.00284466
0.00297571
0.0031083
0.00324176
0.00337548
0.00350881
0.00364115
0.0037719
0.00390059
0.00402668
0.00414976
0.00426935
0.00438513
0.0044967
0.00460381
0.00470621
0.00480364
0.0048959
0.00498282
0.00506429
0.00514018
0.00521042
0.00527492
0.00533363
0.00538652
0.00543355
0.00547472
0.00551002
0.00553943
0.00556294
0.00558059
0.00559233
0.00559822
0.00627028
0.00626364
0.00625029
0.00623032
0.00620368
0.00617036
0.00613039
0.00608375
0.00603047
0.00597053
0.00590402
0.00583094
0.00575134
0.00566535
0.00557299
0.00547446
0.00536988
0.00525945
0.00514337
0.00502191
0.0048954
0.00476415
0.00462854
0.00448898
0.00434597
0.00420002
0.00405174
0.00390165
0.00375045
0.0035988
0.00344742
0.00329705
0.00314844
0.00300239
0.00285973
0.00272113
0.00258748
0.00245954
0.00233807
0.00222382
0.00211747
0.00201967
0.00193108
0.00185224
0.00178367
0.00172584
0.00167914
0.00164382
0.00162012
0.00160824
0.00160825
0.00162013
0.00164379
0.00167911
0.00172583
0.00178368
0.00185225
0.00193104
0.00201968
0.00211743
0.00222379
0.00233805
0.00245953
0.00258746
0.0027211
0.00285966
0.00300236
0.00314842
0.00329703
0.0034474
0.00359881
0.00375043
0.0039016
0.0040517
0.00420002
0.00434595
0.00448895
0.0046285
0.00476414
0.0048954
0.00502193
0.00514339
0.00525944
0.00536988
0.00547448
0.00557301
0.00566535
0.00575136
0.00583092
0.00590401
0.00597056
0.00603047
0.00608377
0.00613039
0.00617036
0.00620369
0.00623033
0.00625031
0.0062636
0.00627027
0.0069153
0.00690785
0.006893
0.00687068
0.00684093
0.00680374
0.00675909
0.00670702
0.0066475
0.00658057
0.00650626
0.00642461
0.00633569
0.00623958
0.00613641
0.0060263
0.00590944
0.005786
0.00565628
0.00552052
0.00537908
0.00523233
0.0050807
0.00492468
0.00476479
0.00460163
0.00443582
0.004268
0.00409893
0.00392941
0.00376014
0.00359207
0.00342597
0.00326274
0.00310323
0.00294843
0.00279911
0.00265617
0.00252052
0.00239288
0.00227415
0.00216496
0.00206605
0.00197808
0.00190159
0.00183708
0.00178491
0.00174552
0.00171912
0.00170585
0.00170585
0.00171911
0.0017455
0.0017849
0.00183706
0.00190158
0.00197809
0.00206606
0.00216494
0.00227411
0.00239286
0.00252047
0.00265616
0.00279906
0.00294837
0.0031032
0.00326268
0.00342591
0.00359201
0.00376013
0.00392938
0.00409894
0.00426799
0.0044358
0.00460159
0.00476478
0.00492467
0.00508068
0.00523231
0.00537906
0.00552051
0.00565628
0.005786
0.00590943
0.0060263
0.00613643
0.0062396
0.00633571
0.00642462
0.00650624
0.00658056
0.00664749
0.00670701
0.00675908
0.00680373
0.00684093
0.00687069
0.006893
0.00690787
0.00691531
0.00753057
0.00752234
0.00750593
0.00748131
0.00744848
0.00740741
0.00735813
0.00730061
0.0072349
0.00716101
0.00707894
0.00698879
0.00689062
0.00678447
0.00667052
0.00654887
0.00641975
0.00628338
0.00613999
0.00599002
0.0058337
0.00567153
0.00550395
0.00533151
0.00515479
0.00497446
0.00479117
0.0046057
0.00441887
0.0042315
0.00404449
0.00385879
0.00367528
0.00349498
0.00331884
0.00314787
0.00298304
0.0028253
0.00267559
0.00253479
0.00240378
0.00228341
0.00217437
0.00207739
0.00199307
0.00192193
0.0018645
0.00182107
0.00179199
0.00177737
0.00177736
0.00179195
0.00182106
0.00186449
0.00192193
0.00199306
0.00207737
0.00217438
0.00228339
0.00240379
0.00253479
0.00267557
0.00282529
0.00298303
0.00314786
0.00331882
0.00349495
0.00367523
0.00385873
0.00404447
0.00423149
0.00441889
0.00460574
0.00479116
0.00497443
0.00515479
0.0053315
0.00550391
0.0056715
0.0058337
0.00598999
0.00614001
0.00628339
0.00641976
0.00654887
0.00667052
0.00678448
0.00689061
0.00698882
0.00707897
0.00716102
0.00723493
0.00730061
0.00735813
0.00740743
0.0074485
0.00748132
0.00750595
0.00752238
0.00753058
0.00811355
0.00810456
0.00808661
0.00805971
0.00802379
0.00797892
0.00792503
0.00786214
0.00779028
0.00770947
0.00761972
0.00752111
0.0074137
0.00729759
0.0071729
0.00703984
0.00689853
0.00674927
0.00659238
0.00642818
0.00625711
0.00607958
0.00589615
0.00570739
0.00551395
0.00531655
0.00511594
0.00491297
0.00470847
0.00450344
0.00429882
0.00409561
0.00389492
0.00369773
0.00350518
0.00331829
0.00313818
0.00296584
0.00280232
0.0026486
0.00250562
0.00237423
0.0022553
0.00214953
0.00205758
0.00198005
0.00191742
0.00187009
0.00183837
0.00182249
0.00182247
0.00183838
0.00187009
0.00191741
0.00198005
0.00205756
0.00214949
0.00225528
0.00237423
0.00250561
0.00264861
0.00280232
0.00296583
0.00313817
0.00331832
0.00350517
0.00369772
0.00389491
0.00409562
0.00429879
0.00450343
0.00470845
0.00491294
0.00511592
0.00531656
0.00551396
0.00570741
0.00589618
0.0060796
0.0062571
0.00642822
0.00659239
0.00674929
0.00689852
0.00703982
0.00717291
0.00729759
0.0074137
0.00752114
0.00761977
0.00770949
0.0077903
0.00786218
0.00792504
0.00797892
0.00802379
0.00805972
0.00808666
0.0081046
0.00811358
0.00866184
0.00865213
0.00863268
0.00860347
0.00856454
0.00851586
0.00845742
0.00838925
0.00831129
0.00822363
0.00812629
0.00801931
0.00790273
0.00777675
0.00764145
0.007497
0.00734365
0.00718166
0.00701136
0.00683313
0.00664738
0.00645466
0.0062555
0.00605056
0.00584058
0.00562627
0.00540851
0.00518819
0.00496627
0.00474378
0.00452179
0.0043014
0.00408376
0.00387001
0.00366131
0.00345887
0.00326377
0.00307718
0.00290022
0.00273397
0.00257934
0.00243732
0.00230879
0.00219451
0.00209522
0.00201151
0.00194392
0.00189285
0.00185861
0.00184146
0.00184148
0.00185862
0.00189286
0.00194392
0.00201151
0.00209524
0.00219452
0.00230879
0.00243731
0.00257931
0.00273395
0.00290024
0.00307721
0.00326379
0.00345886
0.00366133
0.00387
0.00408377
0.00430141
0.00452181
0.00474378
0.00496625
0.00518815
0.00540852
0.00562626
0.00584057
0.00605059
0.00625553
0.00645466
0.00664739
0.00683313
0.00701138
0.0071817
0.00734367
0.00749701
0.00764144
0.00777675
0.00790275
0.00801933
0.00812631
0.00822366
0.0083113
0.00838925
0.00845744
0.00851588
0.00856455
0.00860349
0.00863271
0.00865217
0.00866189
0.0091733
0.00916284
0.0091419
0.00911046
0.00906855
0.0090161
0.00895318
0.00887976
0.00879584
0.00870142
0.00859655
0.00848131
0.00835576
0.00822001
0.0080742
0.00791856
0.00775329
0.00757873
0.00739517
0.00720305
0.00700284
0.0067951
0.00658043
0.00635954
0.00613322
0.00590225
0.00566759
0.00543021
0.00519119
0.00495157
0.00471256
0.00447536
0.00424117
0.00401125
0.00378688
0.00356925
0.0033597
0.00315939
0.00296948
0.00279109
0.00262532
0.00247314
0.00233546
0.00221307
0.00210678
0.00201721
0.00194488
0.00189024
0.00185363
0.00183526
0.00183527
0.00185365
0.00189024
0.00194486
0.00201721
0.00210677
0.00221307
0.00233543
0.00247314
0.00262533
0.00279109
0.00296948
0.0031594
0.0033597
0.00356929
0.00378686
0.00401126
0.00424117
0.00447536
0.00471256
0.00495157
0.00519118
0.00543022
0.00566759
0.00590227
0.00613323
0.00635957
0.00658046
0.00679513
0.00700287
0.00720306
0.00739518
0.00757873
0.00775333
0.00791858
0.00807423
0.00822002
0.00835577
0.00848131
0.00859657
0.00870143
0.00879584
0.00887976
0.0089532
0.00901614
0.00906857
0.00911049
0.00914192
0.00916287
0.00917332
0.00964586
0.00963466
0.00961225
0.00957864
0.00953379
0.0094777
0.00941036
0.00933177
0.00924196
0.00914091
0.00902868
0.0089053
0.00877089
0.00862555
0.00846945
0.00830278
0.00812582
0.00793885
0.00774227
0.0075365
0.00732205
0.00709957
0.00686967
0.00663313
0.00639077
0.00614351
0.00589231
0.00563825
0.00538249
0.0051262
0.00487064
0.00461709
0.00436689
0.00412138
0.00388189
0.00364978
0.00342635
0.00321292
0.00301069
0.00282084
0.00264449
0.00248271
0.00233635
0.00220637
0.00209351
0.00199838
0.00192161
0.00186365
0.00182479
0.0018053
0.0018053
0.00182477
0.00186363
0.00192163
0.00199836
0.00209347
0.00220637
0.00233636
0.0024827
0.00264451
0.00282087
0.00301069
0.00321292
0.00342638
0.0036498
0.00388192
0.00412139
0.00436688
0.00461709
0.00487064
0.00512621
0.00538248
0.00563826
0.00589229
0.0061435
0.00639079
0.00663315
0.0068697
0.0070996
0.00732211
0.00753653
0.00774229
0.00793888
0.00812584
0.00830282
0.00846948
0.00862556
0.00877091
0.0089053
0.00902868
0.00914093
0.00924197
0.00933179
0.00941038
0.00947772
0.0095338
0.00957866
0.00961228
0.00963469
0.00964589
0.0100777
0.0100658
0.010042
0.0100062
0.00995848
0.00989883
0.00982717
0.00974356
0.00964798
0.00954045
0.00942101
0.00928971
0.00914662
0.00899192
0.00882571
0.00864827
0.00845985
0.00826076
0.00805142
0.00783232
0.00760401
0.00736707
0.00712231
0.00687049
0.00661249
0.00634931
0.00608205
0.00581183
0.00553988
0.00526748
0.004996
0.00472676
0.00446124
0.00420085
0.00394703
0.00370121
0.00346468
0.00323891
0.0030251
0.00282454
0.00263831
0.00246752
0.00231314
0.00217608
0.00205709
0.00195687
0.00187599
0.00181494
0.00177405
0.00175351
0.00175351
0.00177403
0.00181494
0.00187599
0.00195687
0.00205711
0.00217608
0.00231315
0.00246752
0.00263832
0.00282453
0.00302513
0.00323892
0.00346469
0.00370118
0.00394706
0.00420088
0.00446128
0.00472677
0.004996
0.00526749
0.0055399
0.00581184
0.00608208
0.00634933
0.0066125
0.0068705
0.00712235
0.00736709
0.00760403
0.00783234
0.00805145
0.00826078
0.00845987
0.0086483
0.00882573
0.00899195
0.00914664
0.00928972
0.00942102
0.00954047
0.00964802
0.0097436
0.0098272
0.00989885
0.00995851
0.0100062
0.010042
0.0100658
0.0100778
0.0104672
0.0104546
0.0104294
0.0103916
0.0103411
0.0102779
0.0102021
0.0101136
0.0100124
0.0098986
0.00977212
0.00963309
0.00948161
0.00931775
0.00914174
0.00895381
0.00875423
0.00854338
0.00832164
0.00808956
0.00784774
0.00759684
0.00733765
0.00707101
0.00679789
0.00651942
0.00623666
0.00595088
0.00566344
0.00537565
0.005089
0.00480495
0.00452497
0.00425061
0.00398336
0.00372468
0.00347604
0.00323879
0.0030143
0.00280384
0.00260854
0.00242951
0.00226781
0.00212427
0.00199972
0.00189486
0.00181026
0.00174639
0.00170361
0.00168219
0.0016822
0.00170363
0.00174637
0.00181024
0.00189487
0.00199973
0.00212428
0.0022678
0.00242951
0.00260853
0.00280382
0.00301431
0.0032388
0.00347604
0.00372469
0.00398337
0.00425064
0.00452501
0.00480496
0.00508903
0.00537569
0.00566346
0.00595093
0.00623668
0.00651943
0.00679793
0.00707101
0.00733762
0.00759685
0.00784774
0.00808958
0.00832165
0.00854339
0.00875424
0.00895384
0.00914177
0.00931774
0.00948162
0.0096331
0.00977213
0.00989861
0.0100124
0.0101136
0.0102021
0.0102779
0.0103411
0.0103916
0.0104294
0.0104547
0.0104673
0.010813
0.0107998
0.0107732
0.0107333
0.0106802
0.0106136
0.0105338
0.0104406
0.010334
0.0102141
0.0100808
0.00993435
0.00977471
0.00960205
0.00941658
0.00921849
0.00900815
0.00878593
0.00855224
0.0083076
0.00805277
0.0077884
0.00751533
0.00723451
0.00694695
0.00665381
0.00635632
0.00605581
0.00575368
0.00545141
0.00515055
0.00485263
0.00455925
0.00427198
0.00399233
0.00372191
0.00346213
0.00321447
0.00298027
0.00276085
0.00255737
0.00237098
0.00220267
0.00205337
0.00192384
0.00181485
0.00172694
0.00166059
0.00161616
0.00159389
0.00159389
0.00161616
0.0016606
0.00172693
0.00181483
0.00192382
0.00205335
0.00220266
0.00237098
0.00255737
0.00276084
0.00298026
0.00321446
0.00346214
0.00372192
0.00399235
0.00427197
0.00455927
0.00485267
0.0051506
0.00545145
0.00575371
0.00605582
0.00635635
0.00665384
0.00694696
0.00723452
0.00751534
0.00778842
0.0080528
0.00830764
0.00855221
0.00878589
0.00900814
0.00921849
0.00941657
0.00960204
0.0097747
0.00993436
0.0100808
0.0102141
0.010334
0.0104406
0.0105338
0.0106137
0.0106802
0.0107333
0.0107732
0.0107998
0.0108131
0.0111139
0.0111
0.0110721
0.0110303
0.0109746
0.0109048
0.0108211
0.0107234
0.0106116
0.0104859
0.0103461
0.0101925
0.0100251
0.00984396
0.00964938
0.0094416
0.00922093
0.00898779
0.00874267
0.00848615
0.00821886
0.00794163
0.00765538
0.00736106
0.00705981
0.00675284
0.00644152
0.00612721
0.00581144
0.0054958
0.00518182
0.00487122
0.0045656
0.00426657
0.00397575
0.00369468
0.00342499
0.00316803
0.00292522
0.00269788
0.00248721
0.00229434
0.00212025
0.00196591
0.00183209
0.00171951
0.00162874
0.00156025
0.0015144
0.0014914
0.00149138
0.00151439
0.00156025
0.00162874
0.00171951
0.00183209
0.00196591
0.00212026
0.00229434
0.00248722
0.00269788
0.00292523
0.00316804
0.00342501
0.00369473
0.00397576
0.00426659
0.00456561
0.00487127
0.00518188
0.00549583
0.00581147
0.00612724
0.00644153
0.00675289
0.00705984
0.00736108
0.0076554
0.00794165
0.00821886
0.00848613
0.00874266
0.0089878
0.00922092
0.00944158
0.00964937
0.00984396
0.0100251
0.0101925
0.0103462
0.0104859
0.0106117
0.0107234
0.0108211
0.0109049
0.0109746
0.0110304
0.0110721
0.0111
0.0111139
0.0113688
0.0113543
0.0113252
0.0112816
0.0112234
0.0111506
0.0110632
0.0109612
0.0108445
0.0107132
0.0105673
0.0104069
0.010232
0.0100429
0.00983972
0.00962273
0.00939228
0.0091488
0.00889284
0.00862501
0.008346
0.00805669
0.00775801
0.00745108
0.00713706
0.00681728
0.00649315
0.0061662
0.00583798
0.00551016
0.00518439
0.00486237
0.00454579
0.00423633
0.00393565
0.0036453
0.00336688
0.00310185
0.00285163
0.00261745
0.00240065
0.00220224
0.00202331
0.0018647
0.00172726
0.00161167
0.00151849
0.0014482
0.00140115
0.00137756
0.0013776
0.00140117
0.00144824
0.00151853
0.00161168
0.00172728
0.00186471
0.00202332
0.00220225
0.00240067
0.00261751
0.00285165
0.00310191
0.00336691
0.00364534
0.00393566
0.00423637
0.00454584
0.0048624
0.00518442
0.00551018
0.00583801
0.00616623
0.00649319
0.00681729
0.00713709
0.00745113
0.00775805
0.00805671
0.00834601
0.00862501
0.00889284
0.00914881
0.00939228
0.00962272
0.00983973
0.0100429
0.0102321
0.0104069
0.0105674
0.0107132
0.0108445
0.0109612
0.0110633
0.0111507
0.0112234
0.0112816
0.0113252
0.0113543
0.0113688
0.011577
0.0115619
0.0115317
0.0114863
0.0114259
0.0113502
0.0112594
0.0111533
0.011032
0.0108955
0.0107438
0.010577
0.0103952
0.0101986
0.0099873
0.00976166
0.00952206
0.00926891
0.00900282
0.00872446
0.00843454
0.00813399
0.00782386
0.00750528
0.00717958
0.00684811
0.0065124
0.00617407
0.00583473
0.00549614
0.00515997
0.00482795
0.00450188
0.00418341
0.00387427
0.00357605
0.00329028
0.00301847
0.00276202
0.00252224
0.00230034
0.00209741
0.00191453
0.00175249
0.00161214
0.0014941
0.00139902
0.00132729
0.00127931
0.00125526
0.00125526
0.00127932
0.00132732
0.00139904
0.00149413
0.00161214
0.00175249
0.00191455
0.00209747
0.00230036
0.00252227
0.00276205
0.0030185
0.0032903
0.00357606
0.00387429
0.00418343
0.0045019
0.00482799
0.00515997
0.00549614
0.00583478
0.00617409
0.00651243
0.00684814
0.00717959
0.00750528
0.00782386
0.00813399
0.00843453
0.00872445
0.00900286
0.00926893
0.00952207
0.00976169
0.0099873
0.0101986
0.0103953
0.0105771
0.0107439
0.0108956
0.0110321
0.0111533
0.0112594
0.0113503
0.0114259
0.0114864
0.0115317
0.0115619
0.011577
0.0117379
0.0117223
0.011691
0.0116441
0.0115815
0.0115032
0.0114092
0.0112994
0.0111738
0.0110325
0.0108755
0.0107027
0.0105145
0.0103109
0.0100921
0.0098585
0.0096104
0.00934836
0.00907297
0.0087849
0.008485
0.00817425
0.00785372
0.00752466
0.00718847
0.00684666
0.00650078
0.00615247
0.00580349
0.00545557
0.00511052
0.0047701
0.00443602
0.00411011
0.00379397
0.00348931
0.00319762
0.00292041
0.00265904
0.00241483
0.002189
0.00198261
0.00179661
0.00163198
0.00148938
0.00136955
0.00127301
0.0012002
0.00115149
0.00112707
0.00112708
0.0011515
0.00120024
0.00127301
0.00136957
0.00148937
0.00163198
0.00179664
0.00198263
0.00218902
0.00241487
0.00265908
0.00292042
0.00319764
0.00348931
0.00379401
0.00411012
0.00443603
0.00477009
0.00511053
0.0054556
0.00580351
0.0061525
0.0065008
0.00684668
0.00718851
0.00752468
0.00785374
0.00817427
0.00848503
0.00878493
0.00907301
0.00934842
0.00961046
0.0098585
0.0100921
0.0103109
0.0105145
0.0107028
0.0108755
0.0110326
0.0111739
0.0112994
0.0114092
0.0115033
0.0115816
0.0116442
0.0116911
0.0117223
0.011738
0.0118513
0.0118351
0.0118029
0.0117546
0.01169
0.0116093
0.0115124
0.0113992
0.0112697
0.011124
0.0109621
0.010784
0.0105899
0.0103799
0.0101543
0.00991347
0.00965775
0.00938768
0.00910388
0.00880708
0.00849827
0.00817839
0.00784868
0.00751047
0.00716522
0.00681444
0.00645985
0.00610316
0.00574609
0.00539052
0.00503819
0.00469093
0.00435054
0.00401871
0.0036972
0.00338758
0.00309142
0.00281019
0.00254524
0.00229785
0.00206916
0.00186029
0.00167216
0.00150563
0.00136153
0.00124045
0.0011429
0.00106941
0.0010202
0.000995539
0.000995518
0.00102019
0.00106937
0.00114289
0.00124044
0.00136154
0.00150566
0.00167217
0.0018603
0.00206919
0.00229784
0.00254525
0.0028102
0.00309144
0.00338761
0.0036972
0.00401875
0.00435054
0.00469094
0.00503818
0.00539054
0.00574614
0.0061032
0.00645991
0.0068145
0.00716523
0.0075105
0.00784868
0.00817838
0.00849826
0.00880711
0.00910388
0.0093877
0.0096578
0.00991353
0.0101544
0.01038
0.0105899
0.010784
0.0109621
0.0111241
0.0112698
0.0113993
0.0115124
0.0116094
0.0116901
0.0117546
0.011803
0.0118352
0.0118513
0.0119168
0.0119003
0.0118672
0.0118176
0.0117513
0.0116685
0.0115689
0.0114527
0.0113198
0.0111701
0.0110038
0.010821
0.0106217
0.0104061
0.0101744
0.00992716
0.00966465
0.00938746
0.00909627
0.00879188
0.0084753
0.00814761
0.00781008
0.00746413
0.00711129
0.00675317
0.0063915
0.00602803
0.00566459
0.005303
0.00494511
0.00459273
0.00424766
0.00391162
0.0035863
0.00327331
0.00297416
0.00269027
0.00242301
0.00217361
0.00194317
0.0017328
0.0015434
0.00137585
0.00123088
0.00110907
0.001011
0.000937073
0.000887606
0.00086282
0.00086282
0.000887595
0.000937062
0.001011
0.00110905
0.00123088
0.00137586
0.00154341
0.00173281
0.00194319
0.00217361
0.00242301
0.00269026
0.00297417
0.00327331
0.00358632
0.00391164
0.00424768
0.00459275
0.00494513
0.00530303
0.00566463
0.00602807
0.00639152
0.0067532
0.0071113
0.00746416
0.00781009
0.00814762
0.00847533
0.00879192
0.00909627
0.00938745
0.00966466
0.00992718
0.0101745
0.0104061
0.0106217
0.0108211
0.0110039
0.0111702
0.0113198
0.0114527
0.011569
0.0116685
0.0117514
0.0118176
0.0118673
0.0119004
0.0119169
0.0119348
0.0119178
0.011884
0.0118332
0.0117655
0.0116808
0.011579
0.0114602
0.0113242
0.0111713
0.0110012
0.0108142
0.0106103
0.0103899
0.010153
0.00990022
0.00963189
0.00934865
0.00905119
0.00874044
0.00841739
0.00808326
0.0077394
0.00738728
0.00702847
0.00666464
0.00629756
0.00592909
0.005561
0.00519518
0.0048335
0.00447773
0.00412971
0.0037911
0.00346359
0.00314874
0.00284804
0.00256289
0.00229456
0.0020443
0.00181323
0.00160231
0.00141251
0.00124465
0.00109945
0.000977487
0.000879326
0.000805306
0.000755807
0.000731021
0.000731011
0.000755786
0.000805306
0.000879315
0.000977476
0.00109944
0.00124465
0.00141252
0.00160232
0.00181322
0.0020443
0.00229458
0.00256289
0.00284804
0.00314875
0.00346359
0.0037911
0.00412973
0.00447777
0.00483353
0.0051952
0.00556103
0.00592911
0.00629759
0.00666464
0.00702848
0.00738727
0.00773942
0.00808331
0.00841743
0.00874046
0.00905124
0.00934868
0.00963193
0.00990025
0.0101531
0.0103899
0.0106104
0.0108142
0.0110012
0.0111713
0.0113243
0.0114602
0.0115791
0.0116808
0.0117656
0.0118333
0.0118841
0.0119179
0.0119348
0.0119052
0.011888
0.0118536
0.0118019
0.0117329
0.0116467
0.011543
0.011422
0.0112836
0.0111278
0.0109546
0.0107641
0.0105566
0.0103321
0.0100909
0.00983359
0.00956052
0.00927232
0.00896988
0.00865408
0.00832596
0.00798689
0.00763825
0.00728156
0.00691846
0.00655071
0.00618006
0.00580833
0.00543744
0.00506922
0.0047055
0.00434814
0.00399884
0.00365935
0.00333123
0.00301601
0.00271519
0.00243006
0.00216192
0.00191194
0.00168121
0.00147074
0.00128137
0.00111394
0.000969133
0.000847562
0.000749667
0.000675922
0.000626582
0.00060188
0.000601859
0.000626603
0.000675932
0.000749667
0.000847562
0.000969122
0.00111393
0.00128138
0.00147074
0.00168123
0.00191197
0.00216194
0.00243007
0.00271519
0.00301601
0.00333124
0.00365934
0.00399885
0.00434815
0.00470553
0.00506925
0.00543744
0.00580836
0.00618009
0.00655073
0.0069185
0.0072816
0.00763829
0.00798695
0.00832602
0.0086541
0.00896992
0.0092724
0.00956053
0.00983361
0.010091
0.0103321
0.0105566
0.0107642
0.0109546
0.0111278
0.0112836
0.011422
0.0115431
0.0116467
0.011733
0.011802
0.0118536
0.0118881
0.0119053
0.0118288
0.0118114
0.0117765
0.011724
0.0116541
0.0115666
0.0114616
0.0113388
0.0111985
0.0110404
0.0108648
0.0106717
0.0104612
0.0102336
0.00998917
0.00972835
0.00945168
0.00915982
0.00885368
0.0085342
0.00820259
0.00786018
0.0075084
0.00714887
0.00678327
0.00641333
0.00604091
0.00566784
0.00529595
0.00492712
0.00456321
0.00420601
0.00385716
0.00351837
0.00319118
0.00287709
0.00257745
0.00229365
0.00202691
0.00177829
0.00154896
0.00133978
0.0011517
0.000985396
0.000841601
0.000720878
0.000623734
0.00055054
0.000501571
0.000477017
0.000477038
0.000501571
0.000550529
0.000623734
0.000720878
0.000841601
0.000985396
0.00115168
0.00133978
0.00154896
0.00177831
0.00202691
0.00229367
0.00257748
0.00287709
0.00319118
0.00351837
0.00385714
0.004206
0.00456324
0.00492714
0.00529596
0.00566785
0.00604093
0.00641336
0.0067833
0.00714892
0.00750845
0.0078602
0.00820264
0.00853425
0.00885372
0.00915989
0.00945171
0.00972837
0.00998919
0.0102336
0.0104612
0.0106717
0.0108648
0.0110405
0.0111985
0.0113388
0.0114616
0.0115667
0.0116542