/*--------------------------------*- C++ -*----------------------------------*\
  =========                 |
  \\      /  F ield         | OpenFOAM: The Open Source CFD Toolbox
   \\    /   O peration     | Website:  https://openfoam.org
    \\  /    A nd           | Version:  7
     \\/     M anipulation  |
\*---------------------------------------------------------------------------*/
FoamFile
{
    version     2.0;
    format      ascii;
    class       volScalarField;
    location    "0.037";
    object      gradTy;
}
// * * * * * * * * * * * * * * * * * * * * * * * * * * * * * * * * * * * * * //

dimensions      [0 -1 0 1 0 0 0];

internalField   nonuniform List<scalar> 
10000
(
0.000235983
0.000235708
0.000235179
0.000234374
0.000233315
0.000231971
0.000230404
0.000228519
0.000226433
0.000224072
0.000221478
0.000218662
0.00021558
0.000212309
0.000208825
0.000205109
0.000201192
0.000197126
0.000192859
0.000188465
0.000183901
0.000179243
0.000174436
0.000169565
0.0001646
0.00015956
0.00015452
0.000149448
0.000144377
0.000139326
0.000134361
0.000129427
0.000124599
0.000119876
0.000115302
0.000110908
0.000106673
0.000102639
9.88382e-05
9.527e-05
9.1956e-05
8.89279e-05
8.61856e-05
8.37821e-05
8.16752e-05
7.99176e-05
7.8467e-05
7.74082e-05
7.66882e-05
7.63283e-05
7.63283e-05
7.66882e-05
7.73976e-05
7.84988e-05
7.99281e-05
8.16963e-05
8.37927e-05
8.62174e-05
8.89385e-05
9.1956e-05
9.527e-05
9.88276e-05
0.000102639
0.000106684
0.000110908
0.000115313
0.000119898
0.000124599
0.000129427
0.000134339
0.000139348
0.000144387
0.000149448
0.000154509
0.000159581
0.000164579
0.000169544
0.000174425
0.000179222
0.000183912
0.000188475
0.000192848
0.000197105
0.000201192
0.000205088
0.000208804
0.000212309
0.000215602
0.000218651
0.000221478
0.000224093
0.000226433
0.00022854
0.000230372
0.000231981
0.000233315
0.000234374
0.000235179
0.000235708
0.000235983
0.000706944
0.000706129
0.000704509
0.000702116
0.000698908
0.000694948
0.000690152
0.000684614
0.000678283
0.000671252
0.00066346
0.000654979
0.000645789
0.000635942
0.00062546
0.000614342
0.000602653
0.000590424
0.000577655
0.000564442
0.000550783
0.000536765
0.000522418
0.000507754
0.000492878
0.000477854
0.000462702
0.000447509
0.000432294
0.000417185
0.000402203
0.000387496
0.00037298
0.000358877
0.000345166
0.000331952
0.000319236
0.000307166
0.000295763
0.000285069
0.000275159
0.000266085
0.000257911
0.000250658
0.000244358
0.000239054
0.000234766
0.000231536
0.000229377
0.000228286
0.000228297
0.000229366
0.000231536
0.000234755
0.000239043
0.000244327
0.000250648
0.000257911
0.000266074
0.000275148
0.000285058
0.000295731
0.000307155
0.000319236
0.00033192
0.000345166
0.000358867
0.000373002
0.000387465
0.000402224
0.000417185
0.000432304
0.000447477
0.000462671
0.000477822
0.000492867
0.000507754
0.000522397
0.000536765
0.000550794
0.00056442
0.000577655
0.000590414
0.000602643
0.000614342
0.000625428
0.000635931
0.000645778
0.000654968
0.000663449
0.000671242
0.000678283
0.000684583
0.000690152
0.000694927
0.000698897
0.000702106
0.00070452
0.000706129
0.000706934
0.00117487
0.00117352
0.00117084
0.00116685
0.00116152
0.00115488
0.00114692
0.00113768
0.00112719
0.00111543
0.00110249
0.00108834
0.00107307
0.00105666
0.00103919
0.00102071
0.00100127
0.000980885
0.000959699
0.000937676
0.000914944
0.000891587
0.000867701
0.000843295
0.000818562
0.000793522
0.000768312
0.000742996
0.000717712
0.000692576
0.000667653
0.000643089
0.000619012
0.000595517
0.000572679
0.000550667
0.000529544
0.000509448
0.000490443
0.000472676
0.000456191
0.000441103
0.000427487
0.000415374
0.000404892
0.000396051
0.000388947
0.000383568
0.000379968
0.00037819
0.000378179
0.000379979
0.000383568
0.000388947
0.000396051
0.000404882
0.000415364
0.000427466
0.000441082
0.00045617
0.000472655
0.000490443
0.000509437
0.000529544
0.000550646
0.000572668
0.000595496
0.000619022
0.000643099
0.000667642
0.000692545
0.00071768
0.000742975
0.000768259
0.0007935
0.000818562
0.000843295
0.000867669
0.000891566
0.000914901
0.000937623
0.000959657
0.000980875
0.00100122
0.00102071
0.00103918
0.00105664
0.00107304
0.00108834
0.00110248
0.00111543
0.00112718
0.00113766
0.00114688
0.00115483
0.00116149
0.00116682
0.00117085
0.00117351
0.00117482
0.00163775
0.00163589
0.00163216
0.00162655
0.00161911
0.00160982
0.0015987
0.00158582
0.00157115
0.00155473
0.00153661
0.00151687
0.00149551
0.00147261
0.0014482
0.00142239
0.0013952
0.00136673
0.00133707
0.00130634
0.00127458
0.00124198
0.00120856
0.0011745
0.00113991
0.0011049
0.00106964
0.00103428
0.00099898
0.000963828
0.000929068
0.000894753
0.000861104
0.000828229
0.000796349
0.000765591
0.000736103
0.000708003
0.00068148
0.000656662
0.000633644
0.000612564
0.000593537
0.000576628
0.000561964
0.000549671
0.000539729
0.000532223
0.000527193
0.000524663
0.000524673
0.000527204
0.000532212
0.000539719
0.00054965
0.000561975
0.000576639
0.000593495
0.000612553
0.000633634
0.000656641
0.000681491
0.000708024
0.000736125
0.000765601
0.00079637
0.00082825
0.000861083
0.000894742
0.000929047
0.000963849
0.00099898
0.0010343
0.00106965
0.00110489
0.00113987
0.00117446
0.0012085
0.00124191
0.00127454
0.00130632
0.00133705
0.0013667
0.00139515
0.00142233
0.00144816
0.00147257
0.00149549
0.00151686
0.00153661
0.0015547
0.00157113
0.00158578
0.00159867
0.00160976
0.00161907
0.00162653
0.00163212
0.00163586
0.00163775
0.00209363
0.00209122
0.00208643
0.00207925
0.00206968
0.00205776
0.00204356
0.002027
0.00200819
0.00198714
0.00196394
0.00193861
0.00191125
0.00188184
0.00185054
0.00181744
0.00178257
0.00174608
0.00170805
0.00166863
0.00162793
0.00158607
0.00154323
0.00149958
0.0014552
0.00141034
0.00136513
0.0013198
0.00127452
0.00122946
0.00118484
0.00114085
0.00109771
0.0010556
0.00101473
0.000975284
0.000937485
0.000901465
0.000867457
0.000835619
0.000806132
0.000779122
0.000754706
0.000733086
0.000714324
0.000698527
0.000685779
0.000676165
0.000669738
0.000666477
0.000666477
0.000669717
0.000676155
0.000685768
0.000698516
0.000714313
0.000733065
0.000754717
0.000779101
0.000806132
0.000835619
0.000867468
0.000901465
0.000937464
0.000975274
0.00101473
0.0010556
0.0010977
0.00114085
0.00118484
0.00122946
0.00127451
0.0013198
0.00136514
0.00141032
0.00145517
0.00149952
0.0015432
0.00158603
0.00162787
0.00166859
0.00170802
0.00174605
0.00178255
0.00181739
0.00185053
0.0018818
0.00191119
0.00193857
0.00196391
0.00198715
0.00200818
0.00202698
0.00204354
0.00205777
0.00206967
0.00207924
0.00208642
0.00209121
0.00209362
0.00254058
0.00253767
0.00253182
0.00252305
0.00251138
0.00249688
0.00247952
0.00245937
0.00243648
0.00241086
0.00238259
0.00235171
0.00231836
0.00228258
0.00224447
0.00220411
0.00216162
0.00211717
0.00207085
0.00202281
0.00197324
0.00192224
0.00187006
0.00181686
0.00176282
0.00170819
0.00165311
0.00159792
0.00154272
0.00148788
0.00143353
0.00137996
0.00132741
0.00127614
0.00122638
0.00117833
0.00113227
0.00108847
0.00104705
0.00100828
0.000972362
0.000939476
0.000909798
0.000883445
0.000860617
0.00084139
0.000825878
0.000814168
0.000806333
0.000802405
0.000802394
0.000806322
0.000814179
0.000825889
0.00084139
0.000860585
0.000883445
0.000909756
0.000939444
0.000972351
0.00100829
0.00104704
0.00108845
0.00113227
0.00117833
0.00122637
0.00127615
0.00132743
0.00137998
0.00143354
0.00148785
0.00154273
0.0015979
0.00165312
0.00170816
0.00176279
0.00181683
0.00187004
0.00192221
0.00197321
0.00202278
0.00207083
0.00211713
0.0021616
0.00220404
0.0022444
0.00228254
0.00231834
0.00235168
0.00238254
0.0024108
0.00243645
0.00245937
0.00247952
0.00249687
0.00251137
0.00252303
0.00253178
0.00253764
0.00254056
0.00297661
0.00297319
0.00296631
0.002956
0.00294232
0.00292521
0.00290479
0.0028811
0.00285413
0.00282398
0.00279071
0.00275437
0.00271509
0.00267297
0.00262809
0.00258058
0.00253061
0.00247825
0.00242373
0.0023672
0.00230884
0.00224883
0.00218739
0.00212477
0.00206117
0.00199685
0.00193209
0.00186708
0.00180219
0.00173761
0.00167366
0.00161063
0.0015488
0.00148847
0.00142991
0.0013734
0.00131923
0.00126767
0.00121898
0.00117339
0.00113115
0.00109246
0.00105754
0.00102657
0.000999721
0.000977116
0.000958884
0.000945098
0.000935876
0.00093127
0.00093127
0.000935866
0.000945088
0.000958841
0.000977095
0.000999721
0.00102655
0.00105752
0.00109246
0.00113113
0.00117339
0.00121898
0.00126768
0.00131923
0.00137341
0.00142991
0.00148848
0.00154883
0.00161063
0.00167365
0.0017376
0.00180219
0.00186709
0.00193208
0.00199686
0.00206118
0.00212476
0.0021874
0.00224883
0.00230882
0.00236719
0.00242372
0.00247824
0.00253056
0.00258056
0.00262804
0.00267292
0.00271506
0.00275433
0.00279065
0.00282393
0.00285408
0.00288107
0.00290478
0.0029252
0.00294229
0.00295599
0.00296629
0.00297318
0.00297662
0.00340001
0.00339605
0.00338815
0.00337634
0.0033606
0.00334099
0.00331752
0.0032903
0.00325932
0.00322471
0.00318649
0.0031448
0.0030997
0.00305131
0.00299977
0.00294523
0.00288783
0.00282771
0.0027651
0.00270018
0.00263315
0.00256427
0.00249373
0.0024218
0.00234879
0.00227494
0.0022006
0.00212598
0.00205146
0.00197732
0.00190391
0.00183155
0.0017606
0.00169137
0.00162413
0.00155931
0.00149717
0.00143801
0.00138216
0.00132983
0.00128136
0.001237
0.00119692
0.0011614
0.00113059
0.00110465
0.00108375
0.00106799
0.00105741
0.0010521
0.00105212
0.00105741
0.00106796
0.00108374
0.00110464
0.00113057
0.00116139
0.00119692
0.00123696
0.00128135
0.0013298
0.00138211
0.001438
0.00149715
0.00155929
0.00162413
0.00169134
0.0017606
0.00183156
0.0019039
0.00197732
0.00205144
0.00212597
0.00220058
0.00227495
0.00234879
0.00242182
0.00249373
0.00256427
0.00263317
0.00270017
0.00276508
0.0028277
0.0028878
0.00294521
0.00299976
0.00305128
0.00309965
0.00314476
0.00318646
0.00322468
0.0032593
0.00329029
0.00331752
0.00334095
0.00336059
0.00337631
0.00338815
0.00339605
0.00340001
0.00380892
0.00380446
0.00379555
0.00378222
0.00376449
0.00374241
0.003716
0.00368528
0.00365037
0.00361137
0.00356829
0.00352127
0.00347045
0.00341595
0.00335787
0.00329637
0.00323168
0.00316395
0.00309337
0.00302018
0.00294465
0.00286703
0.00278754
0.00270651
0.00262424
0.00254106
0.00245723
0.00237321
0.00228921
0.00220572
0.00212304
0.00204155
0.00196161
0.00188362
0.00180797
0.00173494
0.00166496
0.00159835
0.00153544
0.00147655
0.00142199
0.00137205
0.00132695
0.00128698
0.00125231
0.00122314
0.00119961
0.00118185
0.00116995
0.00116401
0.001164
0.00116997
0.00118185
0.0011996
0.00122315
0.00125232
0.00128698
0.00132696
0.00137207
0.00142199
0.00147655
0.00153541
0.00159833
0.00166494
0.00173491
0.00180792
0.00188359
0.00196157
0.00204153
0.00212302
0.00220569
0.00228921
0.00237316
0.00245723
0.00254104
0.00262425
0.00270651
0.00278753
0.00286703
0.00294468
0.0030202
0.00309337
0.00316391
0.00323166
0.00329635
0.00335783
0.00341593
0.00347042
0.00352126
0.00356826
0.00361134
0.00365036
0.00368525
0.00371595
0.00374239
0.0037645
0.00378224
0.00379557
0.00380446
0.00380892
0.00420166
0.00419672
0.00418683
0.00417203
0.00415236
0.00412781
0.00409847
0.00406437
0.00402564
0.0039823
0.00393448
0.00388228
0.00382584
0.00376527
0.00370078
0.00363251
0.00356064
0.00348543
0.00340707
0.00332582
0.00324196
0.00315574
0.00306749
0.00297752
0.00288618
0.00279382
0.0027008
0.00260747
0.00251429
0.00242159
0.00232983
0.0022394
0.00215073
0.00206418
0.00198023
0.00189925
0.00182164
0.00174776
0.001678
0.00161271
0.00155222
0.00149682
0.00144684
0.00140253
0.00136409
0.00133176
0.00130569
0.00128601
0.00127285
0.00126625
0.00126623
0.00127283
0.00128602
0.00130569
0.00133178
0.00136411
0.00140256
0.00144687
0.00149684
0.00155221
0.0016127
0.00167798
0.00174773
0.0018216
0.00189924
0.0019802
0.00206416
0.00215069
0.00223938
0.00232984
0.00242159
0.00251429
0.00260747
0.00270079
0.00279383
0.0028862
0.00297753
0.0030675
0.00315575
0.00324194
0.00332582
0.00340708
0.00348543
0.00356062
0.00363248
0.00370074
0.00376525
0.0038258
0.00388225
0.00393445
0.00398228
0.00402562
0.00406436
0.00409843
0.0041278
0.00415232
0.00417204
0.00418684
0.00419672
0.00420168
0.00457662
0.00457118
0.00456035
0.00454412
0.00452252
0.00449557
0.00446338
0.00442599
0.00438348
0.00433591
0.00428346
0.00422619
0.00416425
0.00409781
0.00402705
0.00395215
0.00387331
0.00379078
0.00370482
0.00361568
0.00352366
0.00342909
0.00333228
0.00323359
0.00313341
0.00303207
0.00293007
0.00282772
0.00272554
0.00262391
0.0025233
0.0024242
0.00232697
0.00223215
0.00214013
0.00205141
0.00196636
0.00188542
0.001809
0.00173751
0.00167126
0.00161061
0.00155589
0.00150737
0.0014653
0.00142991
0.00140136
0.00137982
0.00136539
0.00135814
0.00135815
0.00136537
0.00137982
0.00140136
0.0014299
0.00146531
0.00150737
0.00155593
0.00161063
0.00167127
0.0017375
0.00180902
0.00188541
0.00196634
0.00205138
0.00214012
0.00223213
0.00232697
0.00242418
0.00252332
0.00262394
0.00272555
0.00282776
0.00293009
0.00303211
0.00313341
0.0032336
0.00333228
0.0034291
0.00352367
0.00361569
0.00370481
0.00379079
0.00387331
0.00395214
0.00402704
0.0040978
0.00416424
0.00422618
0.00428345
0.00433593
0.00438347
0.00442598
0.00446339
0.0044956
0.00452253
0.00454413
0.00456037
0.00457123
0.00457665
0.00493225
0.00492638
0.00491458
0.00489694
0.00487346
0.00484422
0.00480925
0.00476864
0.00472243
0.00467081
0.0046138
0.00455161
0.00448434
0.00441217
0.00433529
0.00425395
0.00416834
0.0040787
0.00398532
0.00388852
0.0037886
0.00368587
0.00358076
0.00347359
0.00336481
0.00325482
0.00314403
0.00303299
0.00292206
0.00281177
0.00270261
0.00259503
0.00248959
0.00238671
0.00228691
0.00219066
0.00209845
0.00201072
0.00192786
0.00185035
0.00177858
0.00171286
0.00165358
0.001601
0.00155541
0.00151705
0.00148612
0.0014628
0.00144718
0.00143933
0.00143932
0.00144717
0.00146277
0.00148613
0.00151706
0.00155542
0.00160101
0.00165357
0.00171289
0.00177859
0.00185036
0.00192787
0.0020107
0.00209845
0.00219067
0.00228691
0.0023867
0.00248957
0.00259504
0.00270259
0.00281179
0.00292206
0.00303301
0.00314405
0.00325482
0.00336482
0.00347363
0.00358078
0.00368589
0.0037886
0.00388854
0.00398533
0.00407871
0.00416833
0.00425396
0.00433532
0.00441217
0.00448434
0.00455161
0.00461383
0.00467079
0.00472245
0.00476864
0.00480926
0.00484423
0.00487349
0.00489696
0.0049146
0.0049264
0.00493228
0.00526713
0.00526077
0.00524812
0.0052291
0.00520382
0.00517233
0.00513468
0.00509092
0.00504119
0.00498556
0.00492419
0.00485722
0.00478477
0.00470706
0.00462429
0.00453669
0.00444447
0.00434796
0.00424741
0.00414319
0.00403559
0.00392502
0.00381186
0.0036965
0.00357941
0.00346102
0.00334182
0.00322231
0.00310297
0.00298433
0.00286689
0.00275119
0.00263779
0.00252719
0.00241991
0.00231649
0.00221736
0.00212307
0.00203406
0.00195079
0.00187368
0.00180312
0.00173945
0.00168299
0.00163405
0.00159288
0.00155969
0.00153464
0.00151786
0.00150947
0.00150947
0.00151788
0.00153463
0.00155969
0.0015929
0.00163406
0.00168302
0.00173947
0.00180311
0.0018737
0.00195082
0.0020341
0.00212309
0.00221738
0.00231649
0.00241992
0.0025272
0.00263779
0.00275119
0.00286691
0.00298432
0.00310297
0.00322231
0.00334185
0.00346106
0.00357944
0.00369654
0.00381189
0.00392504
0.00403562
0.0041432
0.00424746
0.00434797
0.00444451
0.0045367
0.0046243
0.00470708
0.00478479
0.00485724
0.0049242
0.00498558
0.00504119
0.00509094
0.00513468
0.00517233
0.00520385
0.00522912
0.00524812
0.00526083
0.00526717
0.00557989
0.00557313
0.00555956
0.00553929
0.00551226
0.00547859
0.00543833
0.0053916
0.00533845
0.00527898
0.00521338
0.00514179
0.00506435
0.00498129
0.00489284
0.0047992
0.00470067
0.0045975
0.00449008
0.00437871
0.00426373
0.00414559
0.00402466
0.00390145
0.00377636
0.00364992
0.00352263
0.00339499
0.00326758
0.0031409
0.00301557
0.00289213
0.00277111
0.00265312
0.00253868
0.00242834
0.00232267
0.00222213
0.00212729
0.00203854
0.00195637
0.0018812
0.00181336
0.00175323
0.00170112
0.00165727
0.00162192
0.00159523
0.00157738
0.00156843
0.00156841
0.00157737
0.00159525
0.00162192
0.00165725
0.00170112
0.00175323
0.00181336
0.0018812
0.00195639
0.00203858
0.0021273
0.00222217
0.00232269
0.00242836
0.00253868
0.00265313
0.00277113
0.00289211
0.0030156
0.00314094
0.00326759
0.00339499
0.00352264
0.00364992
0.0037764
0.00390145
0.0040247
0.0041456
0.00426375
0.00437871
0.00449008
0.00459754
0.00470069
0.00479923
0.00489286
0.00498132
0.00506438
0.00514181
0.00521339
0.005279
0.00533846
0.0053916
0.00543835
0.00547861
0.00551226
0.0055393
0.00555962
0.00557315
0.00557997
0.00586936
0.00586215
0.00584777
0.00582622
0.00579754
0.00576179
0.00571906
0.00566944
0.00561296
0.00554984
0.00548021
0.00540419
0.00532198
0.0052338
0.00513987
0.00504049
0.00493587
0.00482637
0.00471233
0.00459411
0.00447208
0.00434668
0.00421839
0.00408761
0.00395491
0.00382078
0.00368577
0.0035504
0.00341529
0.00328101
0.00314816
0.00301732
0.00288909
0.00276406
0.00264285
0.00252601
0.0024141
0.00230771
0.00220733
0.00211342
0.00202649
0.00194694
0.0018752
0.00181161
0.00175648
0.00171013
0.00167273
0.00164454
0.00162566
0.00161617
0.0016162
0.00162566
0.00164454
0.00167274
0.00171011
0.00175649
0.00181159
0.0018752
0.00194693
0.00202647
0.00211342
0.00220731
0.00230774
0.00241414
0.00252604
0.00264288
0.00276409
0.00288911
0.00301732
0.00314816
0.00328101
0.0034153
0.00355041
0.00368578
0.00382081
0.00395493
0.00408765
0.00421839
0.00434672
0.00447211
0.00459413
0.00471235
0.0048264
0.00493589
0.00504051
0.00513992
0.00523384
0.00532201
0.0054042
0.00548024
0.00554989
0.00561298
0.00566942
0.00571906
0.0057618
0.00579757
0.00582623
0.0058478
0.0058622
0.0058694
0.00613438
0.00612678
0.00611159
0.00608881
0.00605857
0.00602086
0.00597573
0.00592335
0.00586378
0.00579718
0.00572367
0.00564341
0.00555665
0.00546363
0.00536451
0.0052596
0.00514924
0.00503373
0.00491338
0.00478865
0.00465991
0.00452766
0.00439234
0.00425445
0.0041145
0.00397309
0.00383074
0.00368807
0.0035457
0.00340423
0.00326428
0.00312649
0.00299148
0.00285987
0.00273226
0.00260933
0.00249162
0.00237971
0.00227414
0.00217541
0.002084
0.00200042
0.001925
0.00185819
0.00180027
0.00175157
0.0017123
0.00168268
0.00166283
0.0016529
0.0016529
0.00166284
0.00168267
0.00171227
0.00175157
0.00180025
0.00185817
0.00192499
0.00200038
0.002084
0.00217539
0.00227415
0.00237972
0.00249164
0.00260938
0.00273233
0.0028599
0.00299149
0.00312652
0.0032643
0.00340426
0.0035457
0.0036881
0.00383075
0.00397309
0.00411452
0.00425445
0.00439234
0.00452768
0.00465994
0.00478868
0.00491342
0.00503375
0.00514926
0.00525965
0.00536455
0.00546366
0.00555673
0.00564347
0.00572371
0.0057972
0.00586382
0.00592338
0.00597578
0.00602088
0.00605858
0.00608886
0.0061116
0.00612681
0.00613441
0.00637394
0.00636595
0.00635002
0.00632614
0.00629439
0.00625477
0.00620744
0.00615242
0.00608993
0.00602001
0.00594284
0.00585866
0.0057676
0.00566994
0.00556592
0.00545581
0.00534
0.00521878
0.00509253
0.00496166
0.00482665
0.00468789
0.00454595
0.00440136
0.00425464
0.00410639
0.00395719
0.00380768
0.00365852
0.00351033
0.00336374
0.00321947
0.00307813
0.00294038
0.00280691
0.0026783
0.0025552
0.00243816
0.00232779
0.0022246
0.00212909
0.00204172
0.00196299
0.00189317
0.00183271
0.00178183
0.00174083
0.00170989
0.00168921
0.00167883
0.00167882
0.00168921
0.00170989
0.00174081
0.00178181
0.00183267
0.00189315
0.00196295
0.00204173
0.00212908
0.00222458
0.00232778
0.00243817
0.00255519
0.0026783
0.00280693
0.00294041
0.00307814
0.00321947
0.00336374
0.00351032
0.00365854
0.0038077
0.00395719
0.00410637
0.00425461
0.00440134
0.00454594
0.0046879
0.00482663
0.00496168
0.00509255
0.00521881
0.00534006
0.00545587
0.00556596
0.00566999
0.00576764
0.00585868
0.00594289
0.00602004
0.00608996
0.00615251
0.00620748
0.00625481
0.0062944
0.00632617
0.00635003
0.00636597
0.00637393
0.0065872
0.00657886
0.00656219
0.00653726
0.00650408
0.00646274
0.0064133
0.00635588
0.00629059
0.00621759
0.00613703
0.00604911
0.00595405
0.00585204
0.00574346
0.00562852
0.00550759
0.00538104
0.00524925
0.00511264
0.00497173
0.00482695
0.00467887
0.00452803
0.00437501
0.00422038
0.00406486
0.003909
0.00375354
0.00359912
0.00344646
0.00329619
0.00314906
0.0030057
0.00286678
0.00273302
0.00260497
0.00248327
0.00236851
0.00226126
0.002162
0.00207124
0.00198942
0.00191693
0.00185412
0.00180131
0.00175873
0.00172661
0.00170512
0.00169434
0.00169436
0.00170513
0.00172661
0.00175874
0.00180129
0.0018541
0.00191691
0.00198939
0.00207124
0.00216198
0.00226124
0.00236851
0.00248326
0.00260497
0.002733
0.00286679
0.0030057
0.00314906
0.0032962
0.00344645
0.00359912
0.00375355
0.00390903
0.00406486
0.00422039
0.004375
0.00452803
0.00467889
0.00482695
0.00497173
0.00511267
0.00524926
0.00538106
0.00550762
0.00562854
0.0057435
0.00585209
0.00595406
0.00604916
0.00613706
0.00621763
0.00629064
0.00635592
0.00641337
0.00646282
0.00650415
0.0065373
0.00656222
0.00657888
0.00658723
0.00677336
0.0067647
0.00674739
0.00672148
0.00668701
0.00664402
0.00659265
0.00653296
0.00646513
0.00638925
0.00630555
0.00621416
0.00611537
0.00600938
0.00589651
0.00577709
0.00565144
0.00551997
0.0053831
0.00524122
0.00509486
0.00494453
0.00479079
0.0046342
0.00447538
0.00431494
0.0041536
0.00399197
0.00383075
0.00367068
0.00351248
0.00335679
0.00320436
0.00305594
0.00291213
0.00277366
0.00264117
0.00251529
0.00239661
0.00228571
0.00218312
0.0020893
0.00200474
0.00192985
0.00186493
0.0018104
0.00176643
0.00173326
0.00171107
0.00169993
0.00169994
0.00171107
0.00173327
0.00176644
0.0018104
0.00186494
0.00192986
0.00200475
0.00208928
0.0021831
0.00228571
0.00239662
0.00251527
0.00264117
0.00277368
0.00291214
0.00305594
0.00320438
0.00335681
0.00351248
0.0036707
0.00383077
0.00399196
0.00415358
0.00431497
0.00447538
0.00463418
0.00479078
0.00494453
0.00509488
0.00524123
0.0053831
0.00552
0.00565149
0.00577714
0.00589655
0.00600942
0.00611539
0.00621417
0.00630556
0.0063893
0.00646517
0.00653302
0.00659267
0.00664407
0.00668704
0.00672153
0.00674746
0.00676474
0.00677342
0.00693183
0.00692286
0.00690498
0.00687815
0.00684248
0.00679802
0.00674485
0.00668313
0.00661292
0.00653443
0.00644783
0.00635328
0.00625106
0.00614145
0.00602471
0.00590118
0.00577125
0.00563529
0.00549372
0.00534708
0.00519576
0.00504043
0.00488151
0.00471975
0.00455566
0.00439002
0.0042234
0.00405661
0.00389025
0.00372516
0.00356193
0.00340142
0.00324433
0.00309136
0.00294323
0.00280062
0.00266423
0.00253465
0.00241252
0.00229838
0.00219286
0.00209641
0.00200946
0.00193242
0.00186575
0.00180965
0.0017645
0.00173041
0.00170761
0.00169618
0.00169617
0.00170761
0.00173044
0.00176449
0.00180968
0.00186576
0.00193244
0.00200946
0.00209641
0.00219289
0.00229842
0.00241251
0.00253466
0.0026642
0.00280063
0.00294324
0.00309137
0.00324435
0.00340145
0.00356195
0.00372515
0.00389024
0.00405658
0.00422342
0.00439003
0.00455568
0.00471975
0.00488155
0.00504042
0.00519577
0.00534708
0.00549374
0.00563529
0.00577126
0.0059012
0.00602474
0.00614149
0.00625109
0.00635332
0.00644786
0.00653446
0.00661296
0.00668316
0.0067449
0.00679806
0.00684254
0.0068782
0.00690502
0.00692291
0.00693187
0.00706208
0.00705285
0.00703441
0.00700677
0.00697001
0.00692423
0.00686949
0.00680587
0.00673355
0.0066527
0.00656348
0.00646612
0.00636084
0.00624794
0.00612771
0.00600053
0.00586673
0.00572675
0.00558104
0.00543007
0.0052744
0.00511451
0.00495108
0.00478467
0.00461599
0.00444567
0.00427446
0.00410306
0.00393222
0.00376267
0.00359514
0.00343042
0.00326927
0.00311237
0.00296051
0.00281433
0.00267453
0.00254178
0.00241669
0.00229986
0.00219181
0.00209307
0.0020041
0.0019253
0.00185709
0.00179969
0.00175349
0.00171864
0.00169533
0.00168364
0.00168363
0.0016953
0.00171865
0.00175351
0.00179972
0.00185709
0.00192532
0.00200411
0.00209308
0.00219184
0.00229985
0.00241671
0.0025418
0.00267457
0.00281431
0.00296048
0.00311236
0.00326926
0.00343044
0.00359514
0.00376267
0.00393222
0.00410306
0.00427446
0.00444565
0.00461597
0.00478467
0.00495107
0.0051145
0.00527437
0.00543007
0.00558105
0.00572675
0.00586673
0.00600053
0.00612774
0.00624794
0.00636088
0.00646614
0.0065635
0.00665271
0.00673359
0.00680589
0.00686953
0.00692427
0.00697008
0.00700682
0.00703444
0.0070529
0.00706213
0.00716374
0.00715425
0.00713532
0.007107
0.00706929
0.00702232
0.00696616
0.0069009
0.00682671
0.00674378
0.00665227
0.00655239
0.00644443
0.00632863
0.00620536
0.00607495
0.00593776
0.00579426
0.00564489
0.00549019
0.00533067
0.0051669
0.00499948
0.00482908
0.0046564
0.00448212
0.00430695
0.00413161
0.00395693
0.00378359
0.00361243
0.00344417
0.00327958
0.00311943
0.00296441
0.00281527
0.00267266
0.0025373
0.00240976
0.00229066
0.00218055
0.00207994
0.0019893
0.00190909
0.00183956
0.00178118
0.0017341
0.00169863
0.00167487
0.00166299
0.001663
0.00167489
0.00169864
0.00173413
0.00178119
0.00183958
0.00190906
0.00198933
0.00207997
0.00218057
0.00229069
0.00240978
0.00253732
0.00267269
0.00281526
0.00296439
0.00311942
0.00327957
0.00344415
0.00361244
0.0037836
0.00395694
0.00413164
0.00430695
0.00448211
0.00465643
0.00482911
0.00499948
0.00516689
0.00533066
0.00549019
0.0056449
0.00579429
0.00593779
0.00607497
0.00620538
0.00632868
0.00644444
0.00655242
0.0066523
0.00674383
0.00682676
0.00690096
0.00696621
0.00702237
0.00706936
0.00710705
0.00713539
0.0071543
0.00716379
0.00723653
0.00722686
0.00720753
0.00717858
0.00714006
0.00709206
0.00703467
0.00696802
0.00689224
0.00680749
0.00671402
0.00661199
0.00650172
0.00638347
0.00625758
0.00612441
0.00598435
0.00583787
0.00568543
0.00552754
0.00536477
0.0051977
0.005027
0.00485328
0.00467724
0.00449965
0.00432118
0.00414266
0.00396479
0.00378841
0.00361427
0.00344314
0.00327579
0.00311298
0.00295548
0.00280396
0.00265918
0.00252174
0.0023923
0.00227144
0.00215973
0.00205769
0.00196575
0.0018844
0.00181393
0.00175471
0.00170704
0.00167107
0.001647
0.00163492
0.00163493
0.00164699
0.00167105
0.00170701
0.0017547
0.00181392
0.00188438
0.00196577
0.0020577
0.00215973
0.00227144
0.00239231
0.00252174
0.00265918
0.00280398
0.00295549
0.003113
0.00327579
0.00344314
0.00361427
0.0037884
0.0039648
0.00414266
0.0043212
0.00449965
0.00467725
0.00485328
0.00502698
0.00519769
0.00536476
0.00552754
0.00568543
0.00583787
0.00598438
0.00612444
0.00625759
0.00638352
0.00650175
0.00661202
0.00671405
0.00680754
0.00689228
0.00696805
0.00703471
0.00709211
0.0071401
0.00717863
0.00720757
0.00722691
0.00723655
0.00728033
0.0072705
0.00725082
0.00722136
0.00718215
0.00713333
0.00707492
0.00700709
0.00693001
0.0068438
0.00674867
0.0066449
0.00653273
0.00641246
0.00628441
0.00614901
0.00600663
0.0058577
0.00570273
0.00554225
0.00537686
0.00520718
0.00503381
0.00485746
0.00467881
0.00449859
0.00431759
0.00413655
0.00395627
0.00377754
0.00360113
0.00342783
0.00325844
0.00309369
0.00293433
0.00278112
0.00263471
0.00249577
0.00236497
0.00224285
0.00212999
0.00202693
0.00193413
0.00185194
0.00178082
0.00172107
0.00167292
0.00163665
0.00161236
0.00160016
0.00160017
0.00161235
0.00163663
0.00167293
0.00172108
0.00178084
0.00185196
0.00193412
0.00202696
0.00213002
0.00224287
0.00236497
0.00249578
0.00263471
0.00278114
0.00293438
0.00309369
0.00325845
0.00342785
0.00360114
0.00377756
0.00395631
0.00413659
0.0043176
0.00449862
0.00467879
0.00485744
0.00503383
0.00520722
0.0053769
0.00554228
0.00570274
0.00585769
0.00600662
0.00614901
0.00628446
0.00641248
0.00653277
0.00664494
0.00674871
0.00684383
0.00693004
0.00700711
0.00707496
0.00713334
0.00718219
0.00722141
0.00725087
0.00727053
0.00728036
0.00729515
0.00728516
0.00726522
0.00723534
0.00719565
0.00714614
0.00708698
0.00701823
0.00694012
0.00685277
0.00675638
0.00665123
0.0065376
0.00641579
0.0062861
0.00614892
0.00600474
0.00585395
0.00569712
0.00553473
0.00536737
0.00519572
0.00502039
0.00484209
0.00466155
0.00447948
0.00429666
0.00411388
0.00393191
0.00375154
0.00357363
0.00339889
0.00322814
0.00306212
0.00290161
0.0027473
0.0025999
0.00246007
0.00232843
0.00220559
0.00209209
0.00198842
0.00189509
0.00181248
0.00174099
0.00168092
0.00163253
0.00159604
0.00157163
0.00155942
0.00155942
0.00157164
0.00159605
0.00163253
0.00168093
0.00174101
0.00181251
0.0018951
0.00198842
0.00209209
0.0022056
0.00232844
0.00246008
0.00259991
0.00274733
0.00290163
0.00306214
0.00322817
0.00339892
0.00357365
0.00375158
0.00393193
0.00411389
0.00429669
0.0044795
0.00466156
0.00484211
0.00502041
0.00519574
0.00536739
0.00553473
0.00569711
0.00585397
0.00600473
0.00614892
0.00628609
0.00641577
0.00653761
0.00665126
0.0067564
0.00685277
0.00694013
0.00701827
0.007087
0.00714617
0.00719567
0.0072354
0.00726526
0.00728519
0.00729518
0.00728101
0.00727096
0.00725082
0.00722069
0.00718061
0.00713062
0.0070709
0.00700156
0.00692272
0.00683454
0.00673729
0.0066312
0.00651654
0.00639361
0.00626279
0.00612446
0.00597903
0.00582703
0.00566888
0.00550523
0.0053366
0.00516369
0.00498713
0.00480766
0.00462594
0.00444278
0.00425892
0.00407515
0.00389229
0.00371106
0.00353236
0.00335694
0.00318554
0.00301896
0.00285794
0.00270322
0.00255545
0.00241529
0.00228339
0.00216034
0.00204663
0.00194282
0.00184935
0.00176666
0.00169508
0.00163496
0.00158651
0.00155002
0.00152559
0.00151336
0.00151335
0.00152561
0.00155002
0.00158654
0.00163496
0.00169509
0.00176667
0.00184938
0.00194284
0.00204663
0.00216035
0.0022834
0.0024153
0.00255546
0.00270324
0.00285798
0.00301898
0.00318556
0.00335694
0.00353239
0.00371111
0.00389229
0.00407518
0.00425896
0.0044428
0.00462598
0.00480767
0.00498717
0.00516371
0.00533665
0.00550524
0.0056689
0.00582701
0.00597904
0.00612447
0.00626279
0.00639362
0.00651655
0.00663123
0.00673731
0.00683455
0.00692272
0.00700161
0.00707095
0.00713069
0.00718065
0.00722071
0.00725087
0.00727099
0.00728106
0.00723825
0.0072281
0.00720787
0.0071776
0.00713728
0.00708706
0.00702703
0.0069573
0.00687802
0.00678942
0.00669169
0.0065851
0.00646986
0.00634636
0.00621492
0.00607599
0.00592995
0.00577729
0.00561856
0.00545431
0.00528514
0.00511169
0.00493463
0.0047547
0.00457262
0.00438912
0.00420501
0.00402103
0.003838
0.00365676
0.00347801
0.00330262
0.00313134
0.00296491
0.0028041
0.00264955
0.00250204
0.00236214
0.00223052
0.00210774
0.00199435
0.00189082
0.00179764
0.00171517
0.00164383
0.00158389
0.00153563
0.00149924
0.00147491
0.00146269
0.00146268
0.00147487
0.00149926
0.00153565
0.0015839
0.00164384
0.00171519