/*--------------------------------*- C++ -*----------------------------------*\
  =========                 |
  \\      /  F ield         | OpenFOAM: The Open Source CFD Toolbox
   \\    /   O peration     | Website:  https://openfoam.org
    \\  /    A nd           | Version:  7
     \\/     M anipulation  |
\*---------------------------------------------------------------------------*/
FoamFile
{
    version     2.0;
    format      ascii;
    class       volScalarField;
    location    "0.037";
    object      gradTx;
}
// * * * * * * * * * * * * * * * * * * * * * * * * * * * * * * * * * * * * * //

dimensions      [0 -1 0 1 0 0 0];

internalField   nonuniform List<scalar> 
10000
(
0.000235983
0.000706923
0.00117485
0.00163775
0.0020936
0.00254054
0.00297662
0.00340002
0.00380895
0.0042017
0.00457665
0.00493227
0.00526715
0.00557994
0.00586937
0.00613438
0.00637395
0.00658722
0.00677339
0.00693187
0.00706211
0.00716373
0.00723656
0.00728035
0.00729516
0.00728105
0.00723826
0.00716716
0.00706814
0.00694177
0.00678867
0.00660968
0.00640553
0.00617717
0.00592561
0.00565189
0.00535719
0.00504266
0.00470959
0.00435924
0.00399302
0.00361228
0.00321848
0.00281309
0.00239758
0.00197346
0.00154229
0.00110564
0.000665016
0.000222018
-0.000221743
-0.000664699
-0.00110535
-0.00154203
-0.00197321
-0.0023973
-0.00281283
-0.00321822
-0.003612
-0.00399274
-0.00435899
-0.00470932
-0.00504242
-0.00535694
-0.00565163
-0.00592539
-0.00617693
-0.00640528
-0.00660943
-0.00678847
-0.00694155
-0.00706791
-0.00716693
-0.00723806
-0.00728085
-0.00729495
-0.00728014
-0.00723635
-0.00716359
-0.00706195
-0.00693172
-0.00677324
-0.00658708
-0.00637382
-0.00613424
-0.00586925
-0.00557983
-0.00526706
-0.00493219
-0.00457656
-0.00420162
-0.00380888
-0.00339996
-0.00297659
-0.00254053
-0.0020936
-0.00163775
-0.00117486
-0.000706923
-0.000235983
0.000235719
0.000706118
0.0011735
0.00163587
0.00209121
0.00253763
0.00297318
0.00339607
0.00380448
0.00419674
0.00457121
0.00492639
0.00526081
0.00557314
0.00586218
0.00612677
0.00636596
0.00657888
0.00676474
0.0069229
0.00705288
0.00715428
0.00722687
0.00727051
0.00728518
0.00727097
0.00722815
0.00715702
0.00705802
0.00693174
0.00677878
0.00659993
0.00639598
0.00616787
0.00591663
0.00564326
0.00534893
0.00503484
0.0047022
0.00435236
0.00398668
0.00360653
0.00321335
0.00280857
0.0023937
0.00197026
0.00153978
0.00110383
0.000663947
0.000221669
-0.000221383
-0.000663629
-0.00110355
-0.00153952
-0.00197
-0.00239345
-0.00280831
-0.00321306
-0.00360625
-0.00398641
-0.00435212
-0.00470195
-0.00503458
-0.00534866
-0.00564301
-0.00591639
-0.00616765
-0.00639573
-0.00659969
-0.00677856
-0.00693149
-0.00705781
-0.0071568
-0.00722793
-0.00727078
-0.00728498
-0.0072703
-0.00722667
-0.0071541
-0.00705271
-0.00692278
-0.0067646
-0.00657872
-0.00636582
-0.00612664
-0.00586205
-0.00557304
-0.0052607
-0.0049263
-0.00457114
-0.00419668
-0.00380442
-0.00339601
-0.00297315
-0.0025376
-0.00209121
-0.00163587
-0.00117351
-0.000706118
-0.000235708
0.000235168
0.000704498
0.00117084
0.00163215
0.00208642
0.00253178
0.0029663
0.00338815
0.00379557
0.00418686
0.00456038
0.0049146
0.00524812
0.0055596
0.00584777
0.00611158
0.00635005
0.00656223
0.0067474
0.00690499
0.00703444
0.00713536
0.00720755
0.00725083
0.00726523
0.00725088
0.00720792
0.00713674
0.00703782
0.00691169
0.00675897
0.00658045
0.00637692
0.00614934
0.00589868
0.00562597
0.00533241
0.00501917
0.00468748
0.00433866
0.00397404
0.00359504
0.00320304
0.00279954
0.00238595
0.00196387
0.00153479
0.00110023
0.000661787
0.000220949
-0.000220652
-0.00066149
-0.00109997
-0.00153451
-0.00196362
-0.00238572
-0.00279925
-0.00320277
-0.00359478
-0.00397377
-0.00433838
-0.00468724
-0.0050189
-0.00533217
-0.00562574
-0.00589841
-0.00614909
-0.0063767
-0.00658022
-0.00675876
-0.00691147
-0.00703762
-0.00713655
-0.00720771
-0.00725064
-0.00726503
-0.00725062
-0.00720735
-0.00713518
-0.00703429
-0.00690484
-0.00674726
-0.00656208
-0.00634988
-0.00611145
-0.00584766
-0.00555948
-0.00524804
-0.00491452
-0.00456029
-0.00418679
-0.00379553
-0.00338811
-0.00296625
-0.00253175
-0.00208642
-0.00163215
-0.00117083
-0.00070452
-0.000235189
0.000234374
0.000702084
0.00116683
0.00162655
0.00207924
0.00252303
0.002956
0.00337633
0.00378225
0.00417204
0.00454412
0.00489696
0.00522913
0.00553928
0.00582622
0.00608883
0.00632615
0.00653729
0.00672152
0.00687816
0.00700679
0.00710704
0.00717858
0.00722137
0.00723541
0.00722071
0.00717762
0.00710641
0.00700761
0.00688168
0.00672934
0.00655127
0.00634837
0.00612156
0.00587177
0.00560013
0.0053077
0.00499574
0.00466544
0.00431812
0.0039551
0.00357781
0.00318762
0.00278599
0.00237438
0.00195433
0.0015273
0.00109486
0.000658547
0.000219869
-0.000219583
-0.00065824
-0.00109458
-0.00152705
-0.00195407
-0.00237412
-0.00278572
-0.00318735
-0.00357755
-0.00395483
-0.00431786
-0.00466517
-0.00499546
-0.00530747
-0.00559987
-0.00587154
-0.00612132
-0.00634815
-0.00655104
-0.00672912
-0.00688147
-0.00700738
-0.00710621
-0.00717741
-0.0072205
-0.00723518
-0.00722118
-0.00717841
-0.00710686
-0.00700666
-0.006878
-0.00672137
-0.00653715
-0.00632601
-0.0060887
-0.00582609
-0.00553918
-0.00522901
-0.00489686
-0.00454407
-0.00417198
-0.00378219
-0.00337631
-0.00295596
-0.00252298
-0.00207923
-0.00162653
-0.00116683
-0.000702127
-0.000234374
0.000233294
0.000698908
0.00116149
0.0016191
0.00206969
0.00251139
0.00294229
0.00336059
0.00376449
0.00415234
0.00452252
0.0048735
0.00520385
0.00551227
0.00579754
0.00605858
0.00629438
0.00650412
0.00668704
0.00684249
0.00697006
0.00706934
0.00714006
0.00718218
0.00719566
0.00718061
0.00713731
0.00706608
0.00696738
0.00684176
0.00668987
0.00651251
0.00631042
0.0060846
0.00583603
0.00556574
0.00527481
0.00496456
0.00463614
0.0042908
0.00392995
0.00355492
0.0031671
0.00276799
0.00235901
0.00194162
0.00151733
0.0010877
0.000654238
0.000218429
-0.000218132
-0.000653941
-0.00108745
-0.00151707
-0.00194134
-0.00235874
-0.00276774
-0.00316683
-0.00355465
-0.00392969
-0.00429054
-0.00463585
-0.00496428
-0.00527457
-0.00556548
-0.00583577
-0.00608438
-0.0063102
-0.00651225
-0.00668967
-0.00684153
-0.00696715
-0.00706587
-0.00713711
-0.00718043
-0.00719546
-0.007182
-0.00713989
-0.00706917
-0.0069699
-0.00684232
-0.00668687
-0.006504
-0.00629424
-0.00605843
-0.00579742
-0.00551218
-0.00520373
-0.00487339
-0.00452244
-0.00415227
-0.00376446
-0.00336055
-0.00294227
-0.00251137
-0.00206966
-0.00161907
-0.00116149
-0.000698929
-0.000233294
0.000231971
0.000694895
0.00115486
0.00160979
0.00205776
0.00249689
0.00292522
0.00334096
0.00374239
0.00412778
0.00449562
0.00484424
0.00517235
0.00547861
0.00576181
0.00602086
0.00625479
0.00646278
0.00664405
0.00679804
0.00692424
0.00702235
0.00709208
0.00713334
0.00714617
0.00713064
0.00708706
0.0070158
0.00691725
0.00679202
0.00664072
0.00646415
0.00626313
0.00603856
0.00579146
0.00552288
0.00523388
0.00492571
0.00459961
0.00425677
0.00389861
0.0035264
0.00314157
0.00274559
0.00233983
0.00192578
0.00150493
0.00107882
0.000648859
0.000216618
-0.000216332
-0.000648563
-0.00107854
-0.00150468
-0.00192555
-0.00233956
-0.00274532
-0.00314134
-0.00352611
-0.00389832
-0.00425651
-0.00459933
-0.00492546
-0.00523365
-0.00552261
-0.00579121
-0.00603834
-0.00626289
-0.00646393
-0.00664051
-0.0067918
-0.00691704
-0.00701559
-0.00708688
-0.00713046
-0.00714597
-0.00713315
-0.00709191
-0.00702219
-0.00692406
-0.00679788
-0.0066439
-0.00646263
-0.00625467
-0.00602071
-0.00576169
-0.00547849
-0.00517226
-0.00484414
-0.0044955
-0.00412771
-0.00374234
-0.00334095
-0.00292519
-0.00249685
-0.00205776
-0.00160978
-0.00115484
-0.000694927
-0.00023196
0.000230382
0.000690152
0.00114688
0.00159867
0.00204353
0.00247953
0.0029048
0.00331753
0.00371597
0.00409845
0.00446338
0.00480927
0.00513472
0.00543836
0.00571906
0.00597573
0.00620745
0.00641335
0.00659269
0.00674488
0.00686949
0.00696615
0.00703468
0.00707494
0.00708699
0.00707091
0.00702704
0.00695569
0.00685735
0.00673256
0.00658198
0.00640636
0.00620659
0.00598356
0.00573821
0.00547163
0.00518496
0.00487932
0.00455595
0.00421614
0.00386114
0.00349235
0.00311107
0.00271882
0.00231694
0.00190688
0.00149012
0.00106815
0.000642453
0.000214501
-0.000214225
-0.000642146
-0.00106788
-0.00148987
-0.00190664
-0.00231668
-0.00271855
-0.00311083
-0.00349206
-0.00386085
-0.00421584
-0.00455569
-0.00487907
-0.0051847
-0.00547138
-0.00573796
-0.00598331
-0.00620638
-0.00640615
-0.00658176
-0.00673233
-0.0068571
-0.0069555
-0.00702684
-0.00707075
-0.0070868
-0.00707477
-0.0070345
-0.00696601
-0.00686933
-0.0067447
-0.00659252
-0.0064132
-0.00620733
-0.00597562
-0.00571897
-0.00543822
-0.0051346
-0.00480919
-0.00446329
-0.00409837
-0.00371591
-0.00331749
-0.00290476
-0.00247951
-0.0020435
-0.00159868
-0.00114689
-0.000690131
-0.000230393
0.000228551
0.000684604
0.00113766
0.00158577
0.00202698
0.00245936
0.00288109
0.00329031
0.00368527
0.00406436
0.00442599
0.00476867
0.00509095
0.0053916
0.00566941
0.00592336
0.00615246
0.00635591
0.00653301
0.00668315
0.00680587
0.00690089
0.00696804
0.00700712
0.00701825
0.00700156
0.00695731
0.00688588
0.00678776
0.00666349
0.00651375
0.00633929
0.00614098
0.00591967
0.00567639
0.0054122
0.00512816
0.00482546
0.00450532
0.00416894
0.00381766
0.00345282
0.00307569
0.00268775
0.00229037
0.00188493
0.00147294
0.00105582
0.000635021
0.000212023
-0.000211726
-0.000634745
-0.00105556
-0.00147269
-0.00188467
-0.00229011
-0.0026875
-0.00307545
-0.00345251
-0.00381738
-0.00416867
-0.00450504
-0.0048252
-0.00512792
-0.00541193
-0.00567615
-0.00591943
-0.00614073
-0.0063391
-0.00651354
-0.00666327
-0.00678753
-0.0068857
-0.00695714
-0.00700137
-0.00701805
-0.00700693
-0.00696784
-0.00690076
-0.00680572
-0.00668297
-0.00653287
-0.00635578
-0.00615235
-0.00592323
-0.00566933
-0.00539147
-0.00509084
-0.00476856
-0.00442591
-0.00406428
-0.0036852
-0.00329024
-0.00288107
-0.00245935
-0.00202698
-0.00158577
-0.00113764
-0.000684593
-0.000228529
0.000226433
0.000678283
0.00112716
0.00157113
0.00200818
0.00243647
0.00285412
0.00325932
0.00365036
0.00402561
0.00438347
0.00472248
0.00504123
0.00533845
0.00561298
0.0058638
0.00608994
0.00629061
0.00646514
0.00661293
0.00673356
0.00682674
0.00689223
0.00693001
0.00694012
0.00692272
0.00687808
0.00680656
0.00670868
0.00658501
0.0064362
0.00626306
0.0060664
0.00584712
0.00560616
0.00534466
0.00506364
0.0047643
0.00444778
0.00411534
0.0037683
0.0034079
0.0030355
0.00265248
0.0022602
0.00186003
0.00145345
0.00104181
0.000626582
0.000209185
-0.0002089
-0.000626307
-0.00104155
-0.00145318
-0.00185979
-0.00225993
-0.00265222
-0.00303526
-0.00340763
-0.003768
-0.00411509
-0.00444751
-0.00476401
-0.0050634
-0.0053444
-0.00560591
-0.00584685
-0.00606617
-0.00626283
-0.00643602
-0.00658478
-0.00670847
-0.00680637
-0.00687784
-0.00692255
-0.00693993
-0.00692983
-0.00689206
-0.00682656
-0.00673342
-0.00661279
-0.006465
-0.00629048
-0.00608982
-0.00586368
-0.00561286
-0.00533834
-0.00504113
-0.00472236
-0.00438338
-0.00402552
-0.00365031
-0.00325926
-0.00285409
-0.00243644
-0.00200816
-0.00157112
-0.00112716
-0.000678272
-0.000226422
0.000224083
0.000671231
0.00111543
0.00155473
0.00198716
0.00241086
0.00282397
0.0032247
0.00361135
0.00398226
0.00433593
0.00467083
0.00498563
0.005279
0.00554986
0.00579718
0.00602003
0.0062176
0.00638925
0.00653443
0.00665271
0.00674378
0.00680751
0.00684381
0.00685279
0.00683456
0.00678947
0.00671787
0.00662028
0.0064973
0.00634955
0.00617787
0.00598307
0.00576602
0.00552769
0.00526921
0.00499158
0.00469595
0.00438352
0.0040555
0.00371316
0.00335776
0.00299063
0.0026131
0.00222653
0.00183223
0.00143166
0.00102619
0.00061718
0.000206062
-0.000205776
-0.000616905
-0.00102592
-0.0014314
-0.00183198
-0.00222626
-0.00261284
-0.00299038
-0.00335749
-0.00371288
-0.00405524
-0.00438326
-0.00469569
-0.00499131
-0.00526897
-0.00552746
-0.00576575
-0.00598282
-0.00617764
-0.00634936
-0.00649708
-0.00662006
-0.00671769
-0.00678925
-0.00683436
-0.00685258
-0.00684362
-0.00680734
-0.00674361
-0.00665254
-0.0065343
-0.00638914
-0.00621749
-0.00601992
-0.00579708
-0.00554972
-0.00527888
-0.00498551
-0.00467072
-0.00433583
-0.00398218
-0.00361129
-0.00322463
-0.00282393
-0.00241083
-0.00198713
-0.00155469
-0.00111542
-0.000671242
-0.000224072
0.000221478
0.00066347
0.00110249
0.00153663
0.00196395
0.00238259
0.00279067
0.0031865
0.00356829
0.00393447
0.00428345
0.00461382
0.00492425
0.00521339
0.00548022
0.00572366
0.00594286
0.00613706
0.00630551
0.00644781
0.00656349
0.00665227
0.00671402
0.00674871
0.00675641
0.00673732
0.00669173
0.00662004
0.00652282
0.00640056
0.00625401
0.00608395
0.00589118
0.00567662
0.00544123
0.00518605
0.00491213
0.00462065
0.00431273
0.00398956
0.00365242
0.00330254
0.00294119
0.00256974
0.00218945
0.00180163
0.00140767
0.00100896
0.000606814
0.000202589
-0.000202314
-0.000606518
-0.0010087
-0.00140742
-0.00180136
-0.00218917
-0.00256949
-0.00294094
-0.00330227
-0.00365215
-0.00398932
-0.00431246
-0.00462041
-0.00491189
-0.00518582
-0.00544098
-0.00567636
-0.00589093
-0.0060837
-0.00625381
-0.00640034
-0.00652258
-0.00661985
-0.00669151
-0.00673713
-0.00675623
-0.00674852
-0.00671386
-0.00665211
-0.00656332
-0.00644768
-0.0063054
-0.00613693
-0.00594276
-0.00572356
-0.00548009
-0.0052133
-0.00492411
-0.00461372
-0.00428335
-0.00393436
-0.00356822
-0.00318642
-0.00279066
-0.00238254
-0.00196392
-0.0015366
-0.00110247
-0.000663449
-0.000221478
0.000218662
0.000654958
0.00108835
0.00151689
0.00193863
0.00235173
0.00275437
0.00314479
0.00352126
0.00388227
0.00422618
0.00455163
0.00485725
0.00514179
0.0054042
0.00564345
0.00585865
0.00604911
0.00621415
0.00635329
0.00646612
0.00655239
0.006612
0.00664494
0.00665128
0.00663121
0.00658511
0.00651336
0.00641647
0.00629506
0.00614984
0.00598153
0.00579102
0.00557917
0.00534696
0.00509543
0.00482561
0.00453859
0.00423561
0.00391775
0.00358626
0.0032424
0.00288737
0.00252252
0.00214906
0.0017683
0.00138157
0.000990203
0.000595528
0.00019883
-0.000198555
-0.000595242
-0.000989949
-0.0013813
-0.00176803
-0.00214878
-0.00252223
-0.00288711
-0.00324214
-0.00358603
-0.00391752
-0.00423534
-0.00453836
-0.00482535
-0.00509517
-0.00534672
-0.00557891
-0.00579076
-0.0059813
-0.00614961
-0.00629484
-0.00641624
-0.00651314
-0.00658493
-0.00663103
-0.00665107
-0.00664475
-0.00661184
-0.00655224
-0.00646596
-0.00635315
-0.00621401
-0.00604899
-0.00585857
-0.00564335
-0.00540409
-0.00514168
-0.00485712
-0.0045515
-0.00422609
-0.00388216
-0.00352122
-0.00314473
-0.00275432
-0.00235169
-0.00193858
-0.00151685
-0.00108833
-0.000654958
-0.00021864
0.00021558
0.000645789
0.00107306
0.00149552
0.00191126
0.00231836
0.00271509
0.00309967
0.00347046
0.0038258
0.00416425
0.00448437
0.00478479
0.00506437
0.005322
0.00555668
0.00576761
0.00595403
0.00611534
0.00625108
0.00636085
0.00644444
0.00650174
0.00653275
0.00653763
0.00651656
0.0064699
0.00639805
0.0063016
0.00618111
0.00603729
0.00587091
0.00568286
0.00547395
0.0052452
0.00499759
0.00473217
0.00445007
0.00415238
0.00384029
0.00351491
0.00317753
0.00282933
0.00247158
0.00210549
0.00173235
0.00135343
0.000970012
0.000583341
0.000194743
-0.000194479
-0.000583066
-0.000969726
-0.00135315
-0.00173208
-0.00210524
-0.00247131
-0.00282906
-0.00317727
-0.00351468
-0.00384002
-0.00415212
-0.00444981
-0.00473193
-0.00499735
-0.00524496
-0.00547372
-0.0056826
-0.00587068
-0.00603706
-0.00618086
-0.00630137
-0.00639785
-0.00646967
-0.00651636
-0.00653744
-0.00653258
-0.00650157
-0.00644429
-0.00636069
-0.00625093
-0.00611522
-0.00595392
-0.00576751
-0.0055566
-0.00532188
-0.00506425
-0.00478468
-0.00448426
-0.00416416
-0.00382573
-0.00347038
-0.00309961
-0.00271505
-0.00231832
-0.00191118
-0.00149551
-0.00107304
-0.000645767
-0.00021558
0.000212309
0.000635952
0.00105667
0.0014726
0.00188184
0.00228257
0.00267297
0.00305132
0.00341593
0.00376525
0.00409783
0.00441219
0.00470709
0.00498132
0.00523382
0.00546363
0.00566995
0.00585204
0.00600937
0.00614144
0.00624796
0.00632866
0.0063835
0.00641248
0.0064158
0.00639363
0.00634642
0.00627449
0.00617847
0.00605899
0.00591672
0.00575245
0.005567
0.0053613
0.00513625
0.00489288
0.00463219
0.00435531
0.00406332
0.00375736
0.0034386
0.00310816
0.00276727
0.00241711
0.00205894
0.00169394
0.00132334
0.00094838
0.000570339
0.000190413
-0.000190148
-0.000570053
-0.000948116
-0.00132305
-0.00169366
-0.00205865
-0.00241686
-0.002767
-0.00310789
-0.00343833
-0.00375711
-0.00406309
-0.00435507
-0.00463194
-0.00489264
-0.00513601
-0.00536104
-0.00556675
-0.00575218
-0.00591648
-0.00605877
-0.00617826
-0.00627429
-0.00634616
-0.00639344
-0.0064156
-0.0064123
-0.00638332
-0.00632851
-0.0062478
-0.00614132
-0.00600926
-0.00585194
-0.00566985
-0.00546354
-0.0052337
-0.00498119
-0.00470697
-0.00441207
-0.00409774
-0.00376518
-0.00341587
-0.00305124
-0.00267292
-0.00228252
-0.00188183
-0.00147255
-0.00105664
-0.00063591
-0.000212288
0.000208794
0.00062546
0.00103924
0.00144819
0.00185054
0.00224446
0.0026281
0.00299977
0.00335785
0.00370076
0.00402706
0.00433533
0.0046243
0.00489285
0.00513991
0.00536452
0.00556592
0.00574342
0.00589654
0.00602474
0.00612772
0.00620537
0.0062576
0.00628444
0.00628611
0.00626282
0.00621498
0.00614302
0.00604751
0.00592909
0.00578851
0.00562645
0.00544384
0.00524152
0.00502043
0.0047816
0.00452597
0.00425469
0.00396877
0.00366937
0.00335755
0.00303452
0.00270138
0.00235934
0.00200951
0.00165318
0.0012914
0.000925458
0.000556532
0.000185786
-0.000185521
-0.000556247
-0.000925193
-0.00129112
-0.00165288
-0.00200924
-0.00235907
-0.00270112
-0.00303425
-0.0033573
-0.0036691
-0.00396853
-0.00425441
-0.00452574
-0.00478135
-0.00502019
-0.00524127
-0.00544361
-0.0056262
-0.00578824
-0.00592888
-0.0060473
-0.0061428
-0.00621475
-0.0062626
-0.00628591
-0.00628429
-0.00625745
-0.0062052
-0.0061276
-0.0060246
-0.00589639
-0.00574334
-0.00556581
-0.00536442
-0.00513981
-0.00489273
-0.0046242
-0.00433522
-0.00402697
-0.00370069
-0.00335779
-0.0029997
-0.00262805
-0.00224439
-0.0018505
-0.00144815
-0.00103916
-0.000625417
-0.000208772
0.000205109
0.000614353
0.00102074
0.00142238
0.00181744
0.0022041
0.00258058
0.00294522
0.00329636
0.0036325
0.00395216
0.00425396
0.0045367
0.00479923
0.0050405
0.00525963
0.00545583
0.0056285
0.0057771
0.00590122
0.00600052
0.00607497
0.00612444
0.00614901
0.00614894
0.00612449
0.00607601
0.00600403
0.00590909
0.00579184
0.00565303
0.00549338
0.00531374
0.00511505
0.00489818
0.00466413
0.0044139
0.00414852
0.00386905
0.00357653
0.00327212
0.00295686
0.00263193
0.0022984
0.00195745
0.00161019
0.00125775
0.000901307
0.000541985
0.000180926
-0.000180672
-0.000541699
-0.000901042
-0.00125747
-0.00160992
-0.00195716
-0.00229815
-0.00263167
-0.00295659
-0.00327186
-0.00357627
-0.00386876
-0.00414826
-0.00441365
-0.00466389
-0.00489795
-0.00511482
-0.00531353
-0.00549313
-0.00565278
-0.00579163
-0.00590888
-0.00600379
-0.00607579
-0.00612427
-0.00614875
-0.00614885
-0.00612427
-0.00607479
-0.00600039
-0.00590107
-0.00577699
-0.0056284
-0.00545573
-0.00525951
-0.00504039
-0.00479911
-0.00453659
-0.00425386
-0.00395205
-0.00363242
-0.00329633
-0.00294517
-0.00258052
-0.00220404
-0.00181738
-0.00142233
-0.00102067
-0.000614311
-0.000205077
0.000201202
0.000602675
0.00100128
0.0013952
0.00178256
0.00216161
0.00253062
0.00288781
0.00323165
0.00356065
0.0038733
0.00416833
0.00444452
0.00470068
0.00493589
0.00514925
0.00534001
0.00550759
0.00565146
0.00577126
0.00586674
0.00593781
0.00598438
0.00600662
0.00600476
0.00597905
0.00592995
0.00585798
0.00576368
0.00564768
0.00551076
0.00535365
0.0051772
0.00498232
0.0047699
0.00454093
0.00429635
0.0040372
0.00376448
0.00347923
0.00318257
0.00287551
0.00255916
0.00223459
0.00190291
0.00156519
0.0012225
0.000876001
0.000526759
0.000175855
-0.00017559
-0.000526473
-0.000875747
-0.00122223
-0.00156491
-0.00190264
-0.00223432
-0.0025589
-0.00287525
-0.00318229
-0.00347895
-0.0037642
-0.00403692
-0.00429609
-0.00454067
-0.00476967
-0.00498211
-0.005177
-0.0053534
-0.0055105
-0.00564747
-0.00576345
-0.00585775
-0.00592975
-0.00597887
-0.00600455
-0.00600645
-0.00598421
-0.00593761
-0.00586659
-0.00577112
-0.00565133
-0.00550747
-0.00533992
-0.00514912
-0.00493578
-0.00470057
-0.00444439
-0.00416825
-0.00387322
-0.00356058
-0.00323161
-0.00288776
-0.00253056
-0.00216155
-0.00178253
-0.00139514
-0.00100122
-0.000602622
-0.000201181
0.000197105
0.000590435
0.000980917
0.00136674
0.00174608
0.00211714
0.00247825
0.00282771
0.00316392
0.00348542
0.00379079
0.00407871
0.004348
0.00459755
0.00482639
0.00503371
0.0052188
0.00538104
0.00551997
0.00563531
0.00572677
0.00579429
0.0058379
0.0058577
0.00585398
0.00582703
0.0057773
0.00570536
0.00561172
0.00549709
0.00536217
0.00520776
0.00503469
0.00484381
0.0046361
0.00441243
0.00417375
0.00392113
0.00365548
0.00337783
0.00308925
0.00279076
0.00248338
0.00216813
0.00184612
0.0015183
0.00118582
0.00084968
0.000510899
0.000170561
-0.000170285
-0.000510644
-0.000849426
-0.00118556
-0.00151804
-0.00184584
-0.00216787
-0.00248308
-0.00279049
-0.00308898
-0.00337758
-0.00365518
-0.00392084
-0.0041735
-0.00441216
-0.00463584
-0.0048436
-0.00503449
-0.00520753
-0.00536193
-0.00549684
-0.0056115
-0.00570514
-0.0057771
-0.00582682
-0.00585378
-0.00585753
-0.00583771
-0.00579412
-0.00572661
-0.00563515
-0.00551984
-0.0053809
-0.00521868
-0.00503361
-0.00482628
-0.00459743
-0.00434787
-0.00407861
-0.00379072
-0.00348536
-0.00316385
-0.00282764
-0.00247822
-0.00211711
-0.00174604
-0.0013667
-0.000980864
-0.000590382
-0.000197105
0.000192869
0.000577655
0.000959688
0.00133708
0.00170805
0.00207084
0.00242374
0.0027651
0.00309337
0.00340708
0.00370483
0.00398534
0.00424745
0.00449009
0.00471236
0.00491339
0.00509253
0.00524925
0.00538307
0.00549375
0.00558105
0.00564492
0.00568547
0.00570277
0.0056971
0.00566892
0.00561858
0.00554667
0.00545377
0.0053406
0.00520786
0.00505624
0.00488671
0.00470005
0.00449722
0.0042791
0.0040466
0.00380074
0.00354248
0.00327271
0.00299255
0.00270294
0.00240484
0.0020993
0.00178728
0.00146978
0.00114784
0.000822395
0.000494477
0.000165087
-0.000164801
-0.000494233
-0.00082213
-0.00114757
-0.00146953
-0.00178702
-0.00209902
-0.00240458
-0.00270267
-0.00299227
-0.00327244
-0.00354219
-0.00380048
-0.00404634
-0.00427883
-0.00449697
-0.00469984
-0.00488649
-0.005056
-0.00520759
-0.00534037
-0.00545353
-0.00554647
-0.00561838
-0.00566873
-0.00569691
-0.00570256
-0.00568529
-0.00564474
-0.00558089
-0.00549359
-0.00538295
-0.00524909
-0.00509243
-0.00491327
-0.00471223
-0.00448999
-0.00424733
-0.00398524
-0.00370475
-0.003407
-0.00309332
-0.00276503
-0.00242367
-0.00207079
-0.001708
-0.00133706
-0.000959657
-0.000577613
-0.000192859
0.000188454
0.000564452
0.000937687
0.00130636
0.00166861
0.00202279
0.0023672
0.00270019
0.00302021
0.00332584
0.0036157
0.00388853
0.00414322
0.00437871
0.00459409
0.00478864
0.00496169
0.00511267
0.00524122
0.00534708
0.0054301
0.00549022
0.00552756
0.00554227
0.00553473
0.00550527
0.00545433
0.0053825
0.00529044
0.0051788
0.00504827
0.00489965
0.00473383
0.0045516
0.00435381
0.00414147
0.00391539
0.00367656
0.00342589
0.00316434
0.00289285
0.00261239
0.00232391
0.00202834
0.00172667
0.0014198
0.00110868
0.000794316
0.000477578
0.000159443
-0.000159157
-0.000477303
-0.000794051
-0.00110843
-0.00141955
-0.00172639
-0.00202807
-0.00232364
-0.00261213
-0.00289256
-0.00316405
-0.00342561
-0.00367629
-0.00391511
-0.00414118
-0.00435358
-0.00455136
-0.00473362
-0.00489944
-0.00504803
-0.00517856
-0.00529022
-0.0053823
-0.00545411
-0.00550506
-0.00553455
-0.00554212
-0.00552737
-0.00549004
-0.00542992
-0.00534693
-0.00524106
-0.00511253
-0.00496155
-0.00478853
-0.00459397
-0.00437861
-0.00414312
-0.00388841
-0.00361561
-0.00332575
-0.00302015
-0.00270013
-0.00236714
-0.00202275
-0.00166858
-0.00130629
-0.000937655
-0.000564431
-0.000188444
0.000183912
0.000550815
0.000914965
0.00127459
0.00162792
0.00197322
0.00230883
0.00263317
0.00294468
0.00324198
0.00352369
0.00378859
0.00403562
0.00426374
0.00447209
0.00465991
0.00482663
0.00497176
0.00509486
0.0051958
0.00527439
0.00533067
0.0053648
0.0053769
0.00536738
0.00533666
0.00528516
0.00521351
0.00512233
0.00501229
0.00488411
0.00473862
0.00457665
0.00439896
0.00420648
0.00400008
0.00378063
0.00354905
0.00330622
0.00305309
0.00279056
0.00251951
0.00224087
0.00195559
0.00166452
0.00136853
0.00106857
0.000765517
0.000460257
0.000153641
-0.000153376
-0.00045996
-0.000765263
-0.00106832
-0.00136827
-0.00166422
-0.00195533
-0.00224064
-0.00251923
-0.00279026
-0.00305281
-0.00330594
-0.00354877
-0.00378037
-0.00399981
-0.00420623
-0.00439873
-0.00457641
-0.00473841
-0.0048839
-0.00501205
-0.0051221
-0.00521331
-0.00528494
-0.00533645
-0.0053672
-0.00537671
-0.00536461
-0.00533051
-0.00527422
-0.00519563
-0.00509472
-0.0049716
-0.00482652
-0.00465978
-0.00447195
-0.00426363
-0.00403551
-0.0037885
-0.00352361
-0.00324187
-0.00294461
-0.00263309
-0.00230876
-0.00197316
-0.00162788
-0.00127458
-0.000914933
-0.000550773
-0.000183891
0.000179222
0.000536765
0.000891619
0.00124196
0.00158609
0.00192225
0.00224884
0.00256425
0.00286705
0.00315577
0.00342911
0.0036859
0.00392502
0.00414557
0.0043467
0.00452767
0.00468789
0.00482698
0.00494454
0.00504045
0.00511452
0.0051669
0.0051977
0.0052072
0.00519573
0.00516374
0.00511173
0.00504027
0.00495005
0.00484171
0.00471603
0.00457379
0.00441579
0.00424282
0.00405577
0.0038555
0.00364283
0.00341874
0.00318395
0.00293945
0.00268605
0.00242468
0.00215612
0.00188132
0.00160108
0.0013162
0.00102763
0.000736135
0.000442564
0.000147765
-0.00014749
-0.000442278
-0.00073586
-0.00102737
-0.00131596
-0.00160081
-0.00188105
-0.00215587
-0.0024244
-0.00268578
-0.00293918
-0.00318368
-0.00341842
-0.0036426
-0.00385527
-0.00405553
-0.0042426
-0.00441554
-0.00457353
-0.0047158
-0.00484149
-0.00494983
-0.00504007
-0.00511153
-0.00516352
-0.00519554
-0.00520701
-0.00519754
-0.00516673
-0.00511435
-0.00504025
-0.00494439
-0.00482684
-0.00468777
-0.00452752
-0.00434658
-0.00414546
-0.00392493
-0.00368577
-0.00342902
-0.00315567
-0.00286697
-0.00256419
-0.00224877
-0.0019222
-0.00158603
-0.00124193
-0.000891587
-0.000536733
-0.0001792
0.000174415
0.000522418
0.000867711
0.00120856
0.00154324
0.00187007
0.00218742
0.00249374
0.00278756
0.00306752
0.0033323
0.00358076
0.00381184
0.00402469
0.00421839
0.00439231
0.00454596
0.00467887
0.00479081
0.00488158
0.0049511
0.00499951
0.00502698
0.0050338
0.00502041
0.00498718
0.00493467
0.00486349
0.00477429
0.00466779
0.00454469
0.00440578
0.0042519
0.00408378
0.00390232
0.00370834
0.00350265
0.00328613
0.00305959
0.00282389
0.00257985
0.00232825
0.00207002
0.00180585
0.0015366
0.00126306
0.000986031
0.000706277
0.000424607
0.000141772
-0.000141476
-0.000424321
-0.000706023
-0.000985777
-0.00126282
-0.00153634
-0.00180558
-0.00206973
-0.00232799
-0.00257956
-0.00282361
-0.0030593
-0.00328587
-0.00350241
-0.00370811
-0.00390207
-0.00408355
-0.00425166
-0.00440556
-0.00454445
-0.00466756
-0.00477407
-0.00486328
-0.00493444
-0.00498698
-0.00502021
-0.00503365
-0.00502682
-0.00499935
-0.00495092
-0.00488138
-0.00479063
-0.00467873
-0.00454581
-0.0043922
-0.00421826
-0.00402455
-0.00381174
-0.00358066
-0.0033322
-0.00306741
-0.00278748
-0.00249366
-0.00218735
-0.00187001
-0.0015432
-0.00120853
-0.00086769
-0.000522376
-0.000174415
0.000169544
0.000507775
0.000843338
0.00117447
0.00149957
0.00181688
0.00212479
0.00242182
0.00270653
0.00297754
0.00323361
0.0034736
0.0036965
0.00390144
0.00408763
0.00425443
0.00440136
0.00452804
0.0046342
0.00471977
0.00478471
0.00482911
0.00485328
0.00485745
0.00484211
0.00480766
0.00475473
0.00468388
0.00459581
0.00449118
0.00437075
0.00423531
0.00408565
0.00392251
0.00374677
0.0035592
0.0033606
0.00315185
0.00293365
0.00270687
0.00247231
0.00223069
0.00198287
0.00172949
0.00147138
0.00120931
0.000943976
0.000676123
0.000406428
0.000135684
-0.000135409
-0.000406173
-0.000675837
-0.000943711
-0.00120903
-0.00147114
-0.00172922
-0.00198254
-0.00223043
-0.00247202
-0.00270662
-0.00293338
-0.00315157
-0.00336037
-0.00355894
-0.00374652
-0.00392228
-0.00408542
-0.00423508
-0.00437052
-0.00449095
-0.00459557
-0.00468367
-0.00475453
-0.00480748
-0.00484193
-0.00485727
-0.00485311
-0.00482897
-0.00478452
-0.00471958
-0.00463406
-0.00452786
-0.0044012
-0.0042543
-0.0040875
-0.00390133
-0.00369641
-0.00347349
-0.00323351
-0.00297744
-0.00270647
-0.00242174
-0.00212472
-0.0018168
-0.00149951
-0.00117445
-0.000843306
-0.000507754
-0.000169555
0.000164589
0.000492899
0.000818562
0.00113991
0.0014552
0.00176284
0.0020612
0.00234881
0.00262426
0.00288618
0.00313341
0.0033648
0.00357943
0.00377637
0.00395493
0.00411452
0.00425465
0.004375
0.00447537
0.00455569
0.00461602
0.00465645
0.00467725
0.00467881
0.00466156
0.00462595
0.00457262
0.00450217
0.00441527
0.00431266
0.00419498
0.00406309
0.00391775
0.00375968
0.00358975
0.0034087
0.00321732
0.00301638
0.00280666
0.00258894
0.00236392
0.00213239
0.00189502
0.00165256
0.00140571
0.00115516
0.000901603
0.000645736
0.000388121
0.000129596
-0.00012931
-0.000387867
-0.000645418
-0.000901349
-0.00115491
-0.00140544
-0.0016523
-0.00189474
-0.00213211
-0.00236365
-0.00258865
-0.00280639
-0.00301613
-0.00321706
-0.00340845
-0.00358951
-0.00375945
-0.00391751
-0.00406286
-0.00419475
-0.0043124
-0.00441505
-0.00450196
-0.00457242
-0.00462578
-0.00466138
-0.00467862
-0.00467707
-0.00465627
-0.00461584
-0.00455552
-0.00447522
-0.00437485
-0.00425451
-0.00411436
-0.00395479
-0.00377623
-0.00357932
-0.0033647
-0.0031333
-0.0028861
-0.00262418
-0.00234875
-0.00206113
-0.00176276
-0.00145514
-0.00113985
-0.000818573
-0.000492878
-0.000164579
0.000159602
0.000477854
0.000793522
0.00110491
0.00141034
0.00170819
0.0019969
0.00227497
0.00254107
0.00279379
0.00303207
0.00325484
0.00346104
0.00364994
0.00382079
0.00397308
0.00410638
0.00422041
0.00431497
0.00439002
0.00444571
0.00448214
0.00449965
0.00449862
0.00447949
0.00444278
0.00438912
0.00431913
0.00423348
0.00413291
0.0040181
0.00388983
0.00374887
0.00359598
0.00343193
0.00325751
0.00307337
0.00288037
0.00267918
0.00247053
0.00225513
0.00203372
0.00180691
0.0015754
0.00133983
0.00110086
0.000859093
0.000615221
0.000369793
0.000123476
-0.000123169