/*--------------------------------*- C++ -*----------------------------------*\
  =========                 |
  \\      /  F ield         | OpenFOAM: The Open Source CFD Toolbox
   \\    /   O peration     | Website:  https://openfoam.org
    \\  /    A nd           | Version:  7
     \\/     M anipulation  |
\*---------------------------------------------------------------------------*/
FoamFile
{
    version     2.0;
    format      ascii;
    class       volScalarField;
    location    "0.038";
    object      gradTy;
}
// * * * * * * * * * * * * * * * * * * * * * * * * * * * * * * * * * * * * * //

dimensions      [0 -1 0 1 0 0 0];

internalField   nonuniform List<scalar> 
10000
(
0.000144747
0.000144578
0.000144281
0.000143784
0.000143159
0.000142376
0.000141433
0.000140353
0.000139146
0.000137749
0.000136256
0.000134604
0.000132847
0.000130972
0.000128961
0.000126843
0.00012463
0.000122322
0.000119929
0.000117462
0.000114911
0.000112338
0.00010968
0.000106991
0.00010427
0.000101506
9.87852e-05
9.60324e-05
9.33113e-05
9.06008e-05
8.7922e-05
8.53068e-05
8.27551e-05
8.02564e-05
7.78423e-05
7.55448e-05
7.33213e-05
7.12461e-05
6.92344e-05
6.74026e-05
6.56874e-05
6.4131e-05
6.27334e-05
6.1484e-05
6.0404e-05
5.94935e-05
5.87523e-05
5.82335e-05
5.78524e-05
5.76724e-05
5.76829e-05
5.78418e-05
5.82123e-05
5.87629e-05
5.95041e-05
6.0404e-05
6.14946e-05
6.27334e-05
6.4131e-05
6.56768e-05
6.74132e-05
6.92661e-05
7.12355e-05
7.33319e-05
7.55448e-05
7.78635e-05
8.02775e-05
8.27657e-05
8.5328e-05
8.7922e-05
9.06008e-05
9.33007e-05
9.60324e-05
9.8764e-05
0.000101517
0.000104259
0.000106959
0.000109659
0.000112306
0.000114932
0.000117462
0.00011994
0.000122322
0.00012463
0.000126843
0.000128961
0.000130972
0.000132836
0.000134615
0.000136256
0.000137759
0.000139115
0.000140364
0.000141423
0.000142397
0.000143159
0.000143794
0.00014426
0.000144578
0.000144737
0.000433607
0.000433151
0.000432177
0.000430748
0.000428874
0.000426534
0.000423749
0.000420499
0.000416804
0.000412706
0.000408185
0.000403262
0.000397968
0.000392324
0.000386321
0.000379979
0.000373351
0.000366448
0.000359258
0.000351868
0.000344213
0.000336431
0.000328479
0.000320443
0.00031229
0.000304095
0.000295847
0.000287642
0.000279468
0.000271347
0.000263353
0.000255529
0.000247842
0.000240377
0.000233146
0.000226232
0.000219614
0.000213304
0.000207385
0.000201859
0.000196745
0.000192033
0.00018784
0.000184103
0.000180863
0.000178152
0.000175961
0.000174309
0.000173197
0.000172657
0.000172636
0.000173186
0.000174298
0.000175929
0.00017812
0.000180852
0.000184092
0.000187819
0.000192033
0.000196713
0.000201837
0.000207375
0.000213304
0.000219625
0.000226264
0.000233167
0.000240388
0.000247821
0.000255507
0.000263353
0.000271326
0.000279426
0.00028761
0.000295826
0.000304074
0.00031228
0.000320411
0.000328469
0.00033642
0.000344202
0.000351826
0.000359248
0.000366416
0.00037334
0.000379968
0.000386311
0.000392303
0.000397968
0.000403262
0.000408175
0.000412706
0.000416793
0.000420478
0.000423739
0.000426523
0.000428874
0.000430748
0.000432156
0.000433141
0.000433586
0.000720634
0.000719862
0.000718284
0.000715933
0.000712789
0.000708892
0.000704244
0.000698802
0.000692714
0.000685874
0.000678357
0.000670194
0.000661395
0.000651972
0.000641987
0.000631452
0.00062043
0.000608932
0.00059701
0.000584654
0.00057198
0.000559021
0.000545817
0.000532392
0.000518829
0.00050517
0.000491512
0.000477843
0.000464206
0.000450759
0.000437461
0.000424406
0.000411669
0.000399281
0.000387263
0.000375712
0.000364701
0.000354229
0.000344393
0.000335182
0.000326669
0.000318887
0.000311867
0.000305641
0.000300284
0.000295752
0.000292131
0.000289346
0.000287525
0.000286594
0.000286594
0.000287515
0.000289346
0.000292078
0.00029571
0.000300263
0.000305631
0.000311835
0.000318834
0.000326637
0.00033515
0.000344372
0.000354197
0.00036469
0.000375744
0.000387274
0.00039926
0.000411637
0.000424385
0.00043744
0.000450727
0.000464185
0.000477801
0.000491491
0.00050517
0.000518808
0.000532381
0.000545786
0.000558999
0.000571938
0.000584622
0.000596936
0.000608868
0.000620378
0.000631431
0.000641956
0.00065194
0.000661353
0.000670183
0.000678368
0.000685864
0.000692725
0.000698823
0.000704213
0.00070885
0.000712778
0.00071588
0.000718273
0.00071983
0.000720634
0.0010047
0.00100355
0.00100139
0.000998091
0.000993728
0.000988265
0.000981764
0.000974226
0.000965681
0.000956152
0.00094567
0.000934267
0.000921974
0.000908835
0.00089488
0.000880194
0.000864778
0.000848716
0.000832051
0.000814867
0.000797185
0.00077908
0.000760646
0.000741906
0.000722985
0.000703916
0.000684816
0.000665747
0.000646752
0.000627948
0.000609408
0.000591176
0.000573399
0.000556088
0.000539359
0.000523265
0.000507849
0.00049327
0.000479484
0.000466652
0.000454751
0.000443919
0.000434115
0.000425454
0.000417937
0.000411637
0.000406555
0.000402732
0.000400149
0.000398868
0.000398878
0.00040016
0.000402711
0.000406544
0.000411637
0.000417926
0.000425412
0.000434094
0.000443888
0.00045473
0.00046663
0.000479484
0.000493238
0.000507849
0.000523233
0.000539369
0.000556109
0.000573399
0.000591197
0.000609398
0.000627948
0.000646752
0.000665736
0.000684816
0.000703927
0.000722964
0.000741895
0.000760614
0.000779048
0.000797153
0.000814825
0.000832019
0.000848685
0.000864747
0.000880152
0.000894848
0.000908813
0.000921964
0.000934246
0.000945659
0.000956131
0.00096566
0.000974194
0.000981732
0.000988233
0.000993686
0.00099808
0.00100134
0.00100356
0.00100466
0.00128448
0.00128307
0.00128025
0.00127604
0.00127044
0.00126348
0.00125515
0.0012455
0.00123455
0.00122235
0.00120892
0.00119432
0.00117857
0.00116174
0.0011439
0.00112507
0.00110535
0.00108476
0.00106343
0.0010414
0.00101876
0.000995581
0.00097197
0.00094801
0.000923774
0.00089938
0.0008749
0.000850442
0.000826175
0.000802077
0.000778317
0.000755024
0.000732228
0.000710057
0.000688659
0.000668044
0.000648361
0.000629631
0.000612024
0.00059557
0.000580366
0.000566443
0.000553917
0.000542832
0.000533207
0.000525139
0.000518628
0.000513736
0.000510443
0.000508792
0.000508792
0.000510443
0.000513715
0.000518638
0.00052515
0.000533207
0.00054281
0.000553885
0.000566422
0.000580323
0.000595549
0.000611992
0.000629642
0.000648319
0.000668002
0.000688638
0.000710089
0.000732239
0.000755045
0.00077836
0.000802066
0.000826164
0.000850453
0.000874879
0.000899358
0.000923764
0.000947999
0.000971949
0.000995571
0.00101874
0.00104136
0.00106341
0.00108474
0.0011053
0.00112506
0.00114385
0.00116172
0.00117855
0.00119431
0.00120891
0.00122235
0.00123453
0.0012455
0.00125513
0.00126347
0.00127043
0.00127604
0.00128024
0.00128307
0.00128448
0.00155892
0.00155722
0.00155378
0.00154867
0.00154182
0.00153336
0.00152324
0.00151154
0.00149822
0.00148337
0.00146704
0.00144925
0.00143014
0.00140969
0.00138796
0.00136506
0.00134106
0.00131606
0.00129011
0.00126331
0.00123579
0.0012076
0.00117888
0.00114975
0.0011203
0.00109062
0.00106086
0.00103112
0.00100157
0.000972309
0.000943468
0.000915092
0.000887383
0.000860458
0.000834402
0.00080934
0.000785369
0.000762637
0.000741217
0.000721227
0.00070273
0.000685843
0.000670596
0.000657128
0.00064545
0.000635624
0.000627715
0.000621754
0.000617783
0.000615761
0.000615751
0.000617752
0.000621733
0.000627715
0.000635624
0.000645439
0.000657107
0.000670596
0.000685821
0.000702709
0.000721217
0.000741217
0.000762637
0.00078538
0.000809319
0.00083437
0.000860437
0.000887394
0.000915103
0.000943457
0.00097232
0.00100158
0.00103114
0.00106085
0.00109057
0.00112025
0.00114971
0.00117887
0.00120758
0.00123574
0.00126329
0.00129008
0.00131604
0.00134106
0.00136505
0.00138794
0.00140965
0.00143012
0.00144926
0.00146703
0.00148335
0.0014982
0.0015115
0.00152322
0.00153336
0.00154184
0.00154865
0.0015538
0.00155722
0.00155895
0.00182687
0.00182487
0.00182086
0.00181482
0.00180682
0.00179682
0.00178494
0.00177117
0.00175555
0.00173811
0.00171893
0.00169807
0.00167555
0.00165152
0.00162603
0.00159913
0.00157094
0.00154154
0.00151106
0.0014796
0.00144727
0.00141416
0.00138045
0.0013462
0.0013116
0.00127675
0.0012418
0.00120693
0.00117221
0.00113783
0.00110391
0.00107063
0.00103809
0.00100646
0.000975856
0.000946422
0.00091829
0.000891619
0.000866451
0.000842967
0.000821262
0.000801441
0.000783569
0.000767719
0.000754039
0.00074252
0.000733213
0.000726204
0.000721524
0.000719173
0.000719173
0.000721492
0.000726193
0.000733181
0.000742456
0.000753986
0.000767719
0.000783548
0.00080142
0.000821262
0.000842967
0.000866441
0.000891576
0.000918279
0.000946411
0.000975845
0.00100643
0.00103808
0.0010706
0.00110389
0.00113781
0.0011722
0.00120693
0.00124182
0.00127674
0.00131158
0.00134618
0.00138041
0.00141413
0.00144725
0.00147959
0.00151104
0.00154153
0.00157093
0.0015991
0.00162602
0.0016515
0.00167558
0.00169804
0.00171889
0.00173809
0.00175553
0.00177115
0.00178495
0.00179683
0.0018068
0.0018148
0.00182082
0.00182486
0.00182688
0.0020872
0.0020849
0.00208029
0.00207338
0.0020642
0.00205277
0.00203914
0.00202337
0.00200545
0.00198551
0.00196354
0.00193962
0.00191385
0.0018863
0.00185707
0.00182626
0.00179395
0.00176029
0.00172535
0.00168932
0.00165228
0.00161437
0.00157572
0.00153652
0.00149686
0.00145696
0.00141694
0.00137698
0.0013372
0.00129782
0.00125897
0.00122088
0.00118362
0.00114738
0.00111234
0.00107865
0.00104645
0.00101587
0.000987069
0.000960197
0.000935336
0.000912614
0.000892169
0.000874032
0.00085833
0.000845148
0.000834507
0.000826503
0.000821124
0.000818446
0.000818435
0.000821135
0.000826492
0.000834497
0.000845127
0.00085832
0.000874022
0.000892127
0.000912614
0.000935326
0.000960165
0.000987047
0.00101585
0.0010464
0.00107861
0.00111232
0.00114734
0.00118359
0.00122084
0.00125897
0.00129786
0.00133723
0.00137697
0.00141695
0.00145696
0.00149687
0.0015365
0.0015757
0.00161435
0.00165225
0.00168932
0.00172535
0.00176029
0.00179396
0.00182626
0.00185708
0.0018863
0.00191383
0.0019396
0.00196352
0.00198548
0.00200544
0.00202336
0.00203916
0.00205278
0.00206419
0.00207336
0.00208028
0.00208489
0.00208717
0.00233883
0.00233622
0.00233103
0.00232327
0.00231297
0.00230016
0.00228484
0.00226705
0.00224693
0.00222448
0.00219979
0.00217291
0.00214396
0.00211299
0.00208011
0.00204548
0.00200919
0.00197136
0.0019321
0.00189158
0.00184992
0.00180732
0.00176389
0.00171983
0.00167526
0.00163042
0.00158546
0.00154054
0.00149587
0.00145161
0.00140798
0.00136512
0.00132326
0.00128255
0.0012432
0.00120535
0.00116917
0.00113482
0.00110249
0.00107228
0.00104436
0.00101882
0.000995825
0.000975485
0.000957857
0.000943044
0.000931122
0.000922122
0.000916077
0.000913049
0.00091307
0.000916098
0.000922101
0.000931101
0.000943034
0.000957857
0.000975496
0.000995835
0.00101883
0.00104433
0.00107225
0.00110246
0.00113478
0.00116913
0.00120533
0.00124314
0.00128252
0.00132325
0.0013651
0.00140797
0.0014516
0.00149586
0.00154053
0.00158543
0.0016304
0.00167526
0.00171981
0.00176389
0.0018073
0.00184994
0.00189156
0.00193211
0.00197136
0.00200917
0.00204551
0.00208012
0.002113
0.00214394
0.00217293
0.00219981
0.0022245
0.00224696
0.00226709
0.00228484
0.00230014
0.00231297
0.00232331
0.00233105
0.0023362
0.00233882
0.00258075
0.00257787
0.00257213
0.00256352
0.00255213
0.00253792
0.00252095
0.00250128
0.00247898
0.00245414
0.00242678
0.00239701
0.00236495
0.00233066
0.00229428
0.00225592
0.00221573
0.00217383
0.00213038
0.00208551
0.00203942
0.00199222
0.00194413
0.00189535
0.00184604
0.00179638
0.0017466
0.0016969
0.00164746
0.00159846
0.00155017
0.00150272
0.0014564
0.00141137
0.0013678
0.00132588
0.0012859
0.00124789
0.00121213
0.00117868
0.00114778
0.00111957
0.00109414
0.00107162
0.00105212
0.00103575
0.00102255
0.00101259
0.00100592
0.00100258
0.00100257
0.0010059
0.00101256
0.00102253
0.00103574
0.00105212
0.00107161
0.00109414
0.00111954
0.00114776
0.00117865
0.00121205
0.00124786
0.00128585
0.00132588
0.00136779
0.00141135
0.00145639
0.00150274
0.00155015
0.00159846
0.00164742
0.00169687
0.00174659
0.00179639
0.00184603
0.00189533
0.00194413
0.00199221
0.00203939
0.00208551
0.00213037
0.00217383
0.00221573
0.00225593
0.00229429
0.00233067
0.00236495
0.00239704
0.00242678
0.00245414
0.002479
0.0025013
0.00252095
0.0025379
0.00255212
0.00256352
0.00257212
0.00257786
0.00258075
0.00281194
0.0028088
0.00280251
0.00279312
0.00278064
0.00276508
0.00274654
0.00272505
0.00270066
0.00267346
0.00264352
0.00261097
0.00257589
0.00253839
0.00249862
0.00245667
0.0024127
0.00236687
0.00231932
0.00227025
0.00221983
0.00216826
0.00211569
0.00206231
0.0020084
0.00195413
0.00189969
0.00184531
0.00179125
0.00173771
0.00168492
0.00163309
0.00158245
0.0015332
0.00148559
0.0014398
0.00139604
0.00135456
0.00131543
0.00127892
0.00124518
0.00121434
0.00118658
0.00116198
0.00114068
0.00112276
0.00110835
0.00109745
0.00109018
0.00108654
0.00108652
0.00109015
0.00109744
0.00110832
0.00112276
0.00114066
0.00116195
0.00118656
0.00121434
0.00124517
0.00127891
0.00131541
0.0013545
0.00139605
0.00143979
0.00148557
0.00153319
0.00158244
0.00163308
0.00168492
0.00173771
0.00179126
0.00184535
0.00189968
0.00195414
0.00200839
0.00206231
0.00211567
0.00216826
0.00221983
0.00227027
0.00231935
0.00236686
0.00241271
0.00245667
0.00249865
0.00253842
0.00257592
0.00261098
0.00264355
0.00267348
0.00270067
0.00272506
0.00274656
0.00276511
0.00278064
0.00279313
0.00280251
0.00280884
0.00281196
0.00303152
0.00302811
0.0030213
0.00301113
0.00299759
0.00298077
0.00296071
0.00293743
0.00291104
0.00288158
0.0028492
0.00281397
0.00277597
0.00273538
0.0026923
0.0026469
0.0025993
0.00254969
0.00249824
0.00244513
0.00239056
0.00233471
0.00227779
0.00222006
0.00216169
0.00210297
0.00204408
0.00198525
0.00192674
0.00186885
0.00181169
0.00175562
0.00170085
0.00164758
0.00159607
0.00154658
0.00149924
0.00145433
0.00141207
0.00137257
0.00133609
0.00130275
0.0012727
0.00124612
0.00122309
0.00120373
0.00118814
0.00117638
0.00116851
0.00116454
0.00116453
0.00116848
0.00117636
0.00118811
0.00120372
0.00122309
0.00124611
0.0012727
0.00130273
0.00133607
0.00137255
0.00141204
0.00145431
0.00149921
0.00154654
0.00159606
0.00164755
0.00170082
0.00175561
0.00181169
0.00186881
0.00192676
0.00198525
0.00204405
0.00210294
0.0021617
0.00222009
0.00227781
0.00233472
0.00239057
0.00244514
0.00249825
0.00254973
0.00259934
0.00264691
0.00269232
0.0027354
0.00277598
0.00281396
0.0028492
0.0028816
0.00291105
0.00293744
0.00296071
0.00298079
0.00299762
0.00301115
0.00302135
0.00302813
0.00303155
0.00323857
0.0032349
0.00322761
0.00321669
0.00320218
0.00318412
0.00316256
0.00313761
0.00310927
0.00307766
0.00304291
0.00300508
0.00296433
0.00292078
0.00287457
0.00282585
0.00277478
0.00272155
0.00266634
0.00260937
0.0025508
0.00249086
0.00242985
0.00236789
0.00230532
0.00224231
0.00217913
0.00211606
0.00205333
0.00199119
0.00192996
0.00186984
0.0018111
0.001754
0.00169877
0.0016457
0.00159498
0.00154686
0.00150154
0.00145923
0.00142012
0.00138439
0.0013522
0.0013237
0.00129904
0.00127831
0.00126159
0.00124898
0.00124053
0.00123632
0.00123635
0.00124055
0.00124901
0.0012616
0.00127829
0.00129903
0.00132371
0.00135219
0.00138439
0.0014201
0.00145922
0.00150154
0.00154687
0.00159498
0.0016457
0.00169878
0.00175398
0.00181107
0.00186984
0.00192995
0.00199121
0.00205331
0.00211605
0.00217914
0.00224232
0.00230533
0.00236791
0.00242988
0.00249088
0.0025508
0.00260936
0.00266635
0.00272156
0.00277477
0.00282584
0.00287457
0.0029208
0.00296435
0.00300511
0.00304292
0.00307767
0.00310927
0.00313759
0.00316256
0.00318413
0.0032022
0.0032167
0.00322762
0.00323492
0.00323857
0.00343226
0.00342837
0.00342059
0.00340898
0.00339352
0.00337427
0.00335134
0.00332475
0.00329458
0.00326094
0.00322391
0.00318364
0.00314025
0.00309386
0.00304466
0.00299278
0.00293841
0.00288175
0.00282296
0.00276231
0.00269996
0.0026362
0.00257121
0.00250532
0.00243869
0.00237162
0.00230438
0.00223726
0.0021705
0.00210441
0.00203924
0.00197528
0.00191279
0.00185205
0.00179333
0.00173685
0.00168294
0.00163175
0.00158357
0.00153857
0.00149698
0.001459
0.00142479
0.00139448
0.00136827
0.00134622
0.00132847
0.00131506
0.0013061
0.00130162
0.00130162
0.00130612
0.00131507
0.00132848
0.00134621
0.00136823
0.00139448
0.00142478
0.00145899
0.00149698
0.00153857
0.00158356
0.00163176
0.00168293
0.00173685
0.00179331
0.00185206
0.00191279
0.00197527
0.00203926
0.00210442
0.00217052
0.00223725
0.0023044
0.00237162
0.00243869
0.0025053
0.00257123
0.00263621
0.00269998
0.00276232
0.00282299
0.00288175
0.00293843
0.00299279
0.00304467
0.00309389
0.00314027
0.00318366
0.00322393
0.00326095
0.00329459
0.00332475
0.00335135
0.0033743
0.00339353
0.00340899
0.00342063
0.00342839
0.00343227
0.00361185
0.00360774
0.00359954
0.00358723
0.00357089
0.00355054
0.00352629
0.00349813
0.00346625
0.00343064
0.00339151
0.0033489
0.003303
0.00325396
0.00320191
0.00314706
0.00308957
0.00302965
0.00296751
0.00290335
0.00283747
0.00277006
0.00270137
0.00263167
0.00256126
0.00249037
0.00241931
0.00234836
0.00227783
0.00220798
0.00213914
0.00207156
0.00200553
0.00194138
0.00187934
0.0018197
0.00176275
0.00170869
0.00165779
0.00161029
0.00156637
0.00152628
0.00149016
0.00145819
0.00143052
0.00140723
0.00138849
0.00137436
0.00136492
0.00136017
0.00136015
0.00136492
0.00137434
0.00138848
0.00140722
0.00143049
0.00145819
0.00149016
0.0015263
0.00156641
0.00161032
0.0016578
0.0017087
0.00176276
0.00181972
0.00187935
0.00194138
0.00200554
0.00207156
0.00213914
0.00220801
0.00227784
0.00234838
0.00241932
0.00249037
0.00256125
0.00263169
0.00270136
0.00277007
0.0028375
0.00290339
0.00296753
0.00302968
0.00308961
0.0031471
0.00320194
0.00325397
0.00330305
0.00334892
0.00339151
0.00343067
0.00346626
0.00349815
0.00352628
0.00355054
0.00357089
0.00358725
0.00359953
0.00360777
0.00361186
0.00377664
0.00377234
0.00376367
0.00375076
0.00373357
0.00371222
0.00368669
0.00365712
0.00362356
0.00358619
0.00354504
0.00350028
0.00345204
0.0034005
0.0033458
0.00328812
0.00322771
0.00316474
0.00309943
0.00303201
0.0029628
0.00289195
0.00281983
0.00274657
0.0026726
0.00259815
0.00252352
0.00244902
0.00237495
0.00230159
0.00222931
0.00215836
0.00208904
0.00202168
0.00195656
0.00189399
0.00183419
0.00177747
0.00172407
0.00167423
0.00162815
0.00158608
0.00154818
0.00151465
0.00148559
0.00146115
0.00144149
0.00142668
0.00141676
0.0014118
0.00141182
0.00141677
0.0014267
0.0014415
0.00146117
0.00148562
0.00151465
0.0015482
0.00158606
0.00162818
0.00167422
0.00172409
0.00177748
0.0018342
0.001894
0.0019566
0.00202172
0.00208907
0.00215836
0.00222932
0.00230159
0.00237493
0.00244902
0.00252352
0.00259816
0.00267263
0.00274659
0.0028198
0.00289199
0.00296282
0.00303206
0.00309945
0.00316476
0.00322774
0.00328815
0.0033458
0.00340051
0.00345204
0.00350028
0.00354506
0.00358619
0.00362359
0.00365715
0.00368672
0.00371222
0.0037336
0.00375079
0.00376372
0.00377235
0.00377668
0.00392601
0.00392148
0.00391247
0.00389895
0.003881
0.00385866
0.00383199
0.00380108
0.00376602
0.00372692
0.00368391
0.00363715
0.00358671
0.00353285
0.00347569
0.00341542
0.0033523
0.00328649
0.00321825
0.00314784
0.00307549
0.00300148
0.0029261
0.00284962
0.00277235
0.00269458
0.00261663
0.00253883
0.00246149
0.00238494
0.00230944
0.00223537
0.00216303
0.00209272
0.00202476
0.00195944
0.00189707
0.00183789
0.00178218
0.00173017
0.00168214
0.00163823
0.0015987
0.0015637
0.00153339
0.00150795
0.00148743
0.00147197
0.00146164
0.00145645
0.00145644
0.00146164
0.001472
0.00148745
0.00150796
0.00153342
0.0015637
0.00159869
0.00163823
0.00168212
0.00173017
0.00178219
0.0018379
0.00189707
0.00195947
0.00202477
0.00209274
0.00216305
0.00223539
0.00230944
0.00238491
0.0024615
0.00253884
0.00261665
0.00269458
0.00277234
0.00284962
0.0029261
0.00300147
0.0030755
0.00314786
0.00321828
0.00328651
0.0033523
0.00341544
0.00347569
0.00353285
0.00358673
0.00363716
0.00368395
0.00372694
0.00376604
0.0038011
0.003832
0.00385868
0.00388101
0.00389896
0.00391248
0.00392151
0.00392604
0.00405939
0.00405469
0.00404531
0.00403123
0.00401258
0.00398933
0.00396163
0.00392947
0.00389303
0.00385238
0.00380767
0.00375903
0.00370663
0.0036506
0.00359117
0.00352853
0.00346288
0.00339451
0.00332357
0.00325037
0.00317516
0.00309826
0.00301991
0.00294046
0.00286017
0.00277938
0.0026984
0.00261759
0.00253723
0.0024577
0.00237933
0.00230242
0.00222729
0.00215431
0.00208376
0.002016
0.00195124
0.00188982
0.00183199
0.00177805
0.00172818
0.00168266
0.00164165
0.00160532
0.00157389
0.00154749
0.00152622
0.00151019
0.00149945
0.00149407
0.00149407
0.00149944
0.0015102
0.00152624
0.00154751
0.00157389
0.00160531
0.00164162
0.00168265
0.00172817
0.00177805
0.00183201
0.00188984
0.00195127
0.002016
0.00208381
0.00215434
0.00222732
0.00230243
0.00237933
0.00245771
0.00253722
0.0026176
0.00269842
0.00277938
0.00286017
0.00294044
0.00301993
0.00309827
0.0031752
0.00325038
0.00332357
0.00339451
0.00346291
0.00352855
0.00359119
0.00365058
0.0037066
0.00375903
0.00380768
0.0038524
0.00389305
0.00392948
0.00396165
0.00398937
0.00401261
0.00403126
0.00404532
0.0040547
0.00405942
0.0041763
0.00417144
0.0041617
0.00414716
0.00412784
0.0041038
0.0040751
0.00404186
0.00400416
0.00396209
0.00391583
0.0038655
0.00381129
0.00375331
0.00369184
0.00362703
0.00355913
0.00348838
0.00341503
0.00333929
0.00326152
0.003182
0.00310098
0.00301881
0.0029358
0.00285228
0.00276858
0.00268504
0.00260199
0.00251981
0.0024388
0.00235931
0.00228174
0.00220633
0.00213347
0.00206345
0.00199658
0.00193315
0.00187347
0.00181775
0.00176629
0.00171928
0.00167692
0.00163945
0.001607
0.00157976
0.0015578
0.00154126
0.00153019
0.0015246
0.0015246
0.00153017
0.00154125
0.00155782
0.00157977
0.00160702
0.00163944
0.00167692
0.00171928
0.00176628
0.00181775
0.00187347
0.00193317
0.00199662
0.00206348
0.0021335
0.00220635
0.00228176
0.00235934
0.00243881
0.00251982
0.00260201
0.00268503
0.00276858
0.00285228
0.00293581
0.00301883
0.00310101
0.00318202
0.00326154
0.00333931
0.003415
0.00348835
0.00355911
0.00362702
0.00369181
0.00375331
0.00381127
0.00386549
0.00391581
0.0039621
0.00400415
0.00404186
0.00407512
0.00410382
0.00412787
0.00414721
0.00416175
0.00417146
0.00417635
0.00427631
0.00427127
0.00426126
0.00424631
0.00422639
0.00420163
0.00417208
0.00413783
0.00409898
0.00405566
0.004008
0.00395617
0.00390032
0.00384064
0.00377731
0.0037106
0.00364067
0.00356782
0.0034923
0.00341437
0.00333428
0.00325239
0.00316904
0.00308445
0.002999
0.00291307
0.00282697
0.00274104
0.00265561
0.00257106
0.00248774
0.00240602
0.00232624
0.00224872
0.00217383
0.00210185
0.0020331
0.00196792
0.00190655
0.0018493
0.00179643
0.0017481
0.00170461
0.00166611
0.00163279
0.00160481
0.00158224
0.00156523
0.00155386
0.00154814
0.00154816
0.00155386
0.00156523
0.00158224
0.0016048
0.0016328
0.00166617
0.00170463
0.00174812
0.00179643
0.00184932
0.00190658
0.00196793
0.00203311
0.00210185
0.00217381
0.00224873
0.00232626
0.00240603
0.00248779
0.00257108
0.00265562
0.00274104
0.00282699
0.00291313
0.00299906
0.00308449
0.00316907
0.00325244
0.0033343
0.00341437
0.00349231
0.00356782
0.00364066
0.00371058
0.00377733
0.00384063
0.00390033
0.00395617
0.00400802
0.00405568
0.00409899
0.00413785
0.00417211
0.00420169
0.00422644
0.00424633
0.00426131
0.00427133
0.00427633
0.00435908
0.00435393
0.00434366
0.0043283
0.0043079
0.0042825
0.00425217
0.00421704
0.00417722
0.00413278
0.00408392
0.00403078
0.00397348
0.00391231
0.0038474
0.00377901
0.00370731
0.00363263
0.00355521
0.00347534
0.00339329
0.00330937
0.00322391
0.00313727
0.00304974
0.0029617
0.00287349
0.00278545
0.00269799
0.00261139
0.00252612
0.00244244
0.00236077
0.00228145
0.00220478
0.00213111
0.00206078
0.00199407
0.0019313
0.00187275
0.00181862
0.00176922
0.00172475
0.00168537
0.00165131
0.00162265
0.00159961
0.00158222
0.00157058
0.00156477
0.00156476
0.00157059
0.00158223
0.0015996
0.00162267
0.00165129
0.00168538
0.00172476
0.00176925
0.00181865
0.00187277
0.00193133
0.00199408
0.0020608
0.00213111
0.00220477
0.00228142
0.00236077
0.00244246
0.00252612
0.00261141
0.00269798
0.00278546
0.00287347
0.00296174
0.00304977
0.00313729
0.00322393
0.0033094
0.00339329
0.00347533
0.0035552
0.00363263
0.00370731
0.00377901
0.00384741
0.00391232
0.00397352
0.00403079
0.00408395
0.00413279
0.00417724
0.00421707
0.00425221
0.00428251
0.00430792
0.00432831
0.00434369
0.00435394
0.00435908
0.00442431
0.00441908
0.00440857
0.00439289
0.00437207
0.0043461
0.00431517
0.00427931
0.00423861
0.00419328
0.00414337
0.00408908
0.00403061
0.00396813
0.00390186
0.00383202
0.00375888
0.00368262
0.00360363
0.00352211
0.00343838
0.00335278
0.00326557
0.00317715
0.00308787
0.00299805
0.00290807
0.00281828
0.0027291
0.00264085
0.00255387
0.0024686
0.00238534
0.0023045
0.00222637
0.00215133
0.00207967
0.00201171
0.00194776
0.00188812
0.00183301
0.0017827
0.00173741
0.00169735
0.00166263
0.00163349
0.00161001
0.00159229
0.00158044
0.00157453
0.00157453
0.00158048
0.00159233
0.00161003
0.00163348
0.00166263
0.00169733
0.00173742
0.00178273
0.00183305
0.00188814
0.00194781
0.00201175
0.0020797
0.00215134
0.00222639
0.00230452
0.00238535
0.00246861
0.0025539
0.00264087
0.00272912
0.00281832
0.00290811
0.00299808
0.0030879
0.0031772
0.0032656
0.00335277
0.00343838
0.0035221
0.00360364
0.00368265
0.00375887
0.00383204
0.00390188
0.00396817
0.00403062
0.00408912
0.0041434
0.00419328
0.00423865
0.00427934
0.0043152
0.00434616
0.00437208
0.00439291
0.00440861
0.0044191
0.00442435
0.00447191
0.00446656
0.0044559
0.00443993
0.00441871
0.00439235
0.00436086
0.00432439
0.004283
0.00423688
0.00418614
0.00413095
0.00407151
0.00400798
0.00394059
0.00386957
0.00379521
0.00371775
0.00363742
0.00355457
0.0034695
0.00338249
0.0032939
0.00320407
0.00311336
0.00302212
0.00293076
0.00283956
0.00274899
0.00265941
0.0025711
0.00248457
0.00240008
0.00231798
0.00223873
0.00216258
0.00208989
0.00202096
0.00195612
0.00189558
0.00183972
0.00178872
0.00174277
0.00170212
0.00166696
0.0016374
0.0016136
0.00159566
0.00158363
0.0015776
0.00157762
0.00158366
0.00159563
0.00161358
0.00163739
0.00166695
0.00170212
0.00174279
0.00178871
0.00183973
0.00189564
0.00195612
0.00202097
0.00208988
0.00216259
0.00223875
0.00231802
0.0024001
0.00248459
0.00257113
0.00265942
0.00274906
0.00283963
0.00293079
0.00302215
0.00311338
0.00320408
0.00329391
0.00338248
0.00346949
0.00355455
0.00363743
0.00371775
0.00379526
0.00386962
0.0039406
0.004008
0.00407152
0.00413098
0.00418616
0.00423694
0.00428306
0.00432442
0.0043609
0.00439236
0.00441874
0.00443997
0.00445589
0.00446656
0.0044719
0.00450162
0.00449624
0.00448542
0.00446926
0.00444778
0.00442105
0.00438914
0.0043522
0.00431031
0.00426358
0.00421221
0.0041563
0.00409609
0.00403176
0.00396354
0.00389166
0.00381635
0.0037379
0.00365662
0.00357272
0.0034866
0.00339855
0.00330891
0.00321802
0.00312626
0.00303399
0.00294155
0.00284937
0.00275774
0.00266713
0.00257791
0.00249038
0.00240499
0.00232207
0.00224196
0.00216501
0.00209157
0.00202194
0.00195641
0.00189533
0.00183887
0.00178735
0.00174096
0.00169992
0.00166441
0.00163455
0.00161053
0.00159241
0.0015803
0.00157422
0.0015742
0.00158027
0.0015924
0.00161052
0.00163454
0.0016644
0.00169993
0.00174097
0.00178737
0.00183889
0.00189533
0.00195643
0.00202195
0.00209158
0.00216504
0.00224197
0.00232209
0.00240502
0.00249044
0.00257794
0.00266719
0.00275779
0.0028494
0.00294158
0.00303401
0.00312629
0.00321803
0.00330892
0.00339857
0.00348661
0.00357276
0.00365661
0.00373794
0.00381636
0.00389165
0.00396356
0.00403176
0.00409611
0.00415634
0.00421222
0.0042636
0.00431034
0.00435222
0.00438919
0.00442106
0.00444778
0.00446927
0.00448545
0.00449623
0.00450164
0.00451349
0.00450802
0.00449714
0.00448081
0.00445916
0.0044322
0.00440004
0.00436275
0.00432049
0.00427336
0.0042215
0.00416513
0.00410438
0.00403952
0.00397071
0.00389823
0.0038223
0.00374319
0.0036612
0.00357665
0.00348982
0.00340108
0.00331073
0.00321916
0.00312671
0.00303373
0.0029406
0.00284774
0.00275548
0.00266423
0.00257438
0.00248627
0.00240031
0.00231684
0.00223621
0.00215877
0.00208487
0.00201484
0.00194891
0.00188744
0.00183069
0.00177885
0.0017322
0.00169092
0.0016552
0.0016252
0.00160103
0.0015828
0.00157061
0.00156452
0.00156451
0.00157059
0.00158281
0.00160102
0.0016252
0.00165521
0.00169093
0.00173221
0.00177886
0.00183067
0.00188743
0.00194893
0.00201484
0.00208488
0.00215878
0.00223623
0.00231685
0.00240032
0.00248631
0.00257441
0.00266425
0.00275551
0.00284777
0.00294063
0.00303374
0.00312671
0.00321917
0.00331074
0.00340109
0.00348986
0.00357666
0.00366122
0.00374321
0.0038223
0.00389825
0.00397071
0.00403954
0.00410441
0.00416514
0.00422152
0.00427337
0.00432048
0.00436277
0.00440004
0.0044322
0.00445917
0.00448084
0.00449714
0.00450805
0.00451351
0.00450748
0.00450198
0.00449103
0.00447464
0.00445286
0.00442579
0.00439346
0.00435599
0.00431354
0.00426619
0.00421411
0.00415746
0.00409647
0.00403128
0.00396217
0.00388936
0.00381311
0.00373365
0.00365132
0.00356642
0.00347926
0.00339015
0.00329949
0.00320759
0.00311478
0.00302149
0.00292807
0.00283488
0.00274236
0.00265083
0.00256073
0.00247238
0.00238619
0.0023025
0.00222167
0.00214407
0.00207002
0.00199981
0.0019338
0.0018722
0.00181531
0.00176342
0.00171667
0.00167533
0.00163956
0.00160951
0.0015853
0.00156707
0.00155486
0.00154875
0.00154874
0.00155486
0.00156705
0.00158531
0.00160951
0.00163957
0.00167534
0.00171668
0.00176342
0.00181534
0.00187223
0.0019338
0.00199983
0.00207002
0.00214409
0.0022217
0.00230253
0.00238621
0.00247238
0.00256075
0.00265088
0.00274239
0.00283491
0.00292811
0.00302149
0.00311478
0.00320758
0.0032995
0.00339018
0.00347928
0.00356645
0.00365136
0.00373368
0.00381313
0.00388936
0.0039622
0.00403132
0.00409651
0.0041575
0.00421414
0.0042662
0.00431356
0.00435604
0.00439349
0.00442581
0.00445289
0.00447467
0.00449107
0.00450202
0.00450749
0.00448372
0.00447822
0.00446726
0.00445086
0.00442908
0.00440196
0.00436961
0.00433212
0.00428961
0.00424224
0.00419012
0.00413347
0.00407241
0.00400719
0.00393806
0.00386523
0.00378892
0.00370949
0.00362712
0.00354221
0.00345505
0.00336597
0.00327531
0.00318343
0.0030907
0.00299745
0.00290413
0.00281105
0.00271857
0.00262716
0.00253715
0.00244893
0.00236285
0.00227929
0.00219862
0.00212116
0.00204725
0.00197718
0.00191128
0.00184981
0.00179306