/*--------------------------------*- C++ -*----------------------------------*\
  =========                 |
  \\      /  F ield         | OpenFOAM: The Open Source CFD Toolbox
   \\    /   O peration     | Website:  https://openfoam.org
    \\  /    A nd           | Version:  7
     \\/     M anipulation  |
\*---------------------------------------------------------------------------*/
FoamFile
{
    version     2.0;
    format      ascii;
    class       volScalarField;
    location    "0.038";
    object      gradTx;
}
// * * * * * * * * * * * * * * * * * * * * * * * * * * * * * * * * * * * * * //

dimensions      [0 -1 0 1 0 0 0];

internalField   nonuniform List<scalar> 
10000
(
0.000144726
0.000433564
0.000720645
0.00100467
0.00128447
0.00155893
0.00182688
0.00208722
0.00233884
0.00258077
0.00281197
0.00303154
0.00323857
0.00343227
0.00361186
0.00377666
0.00392602
0.00405939
0.00417633
0.00427634
0.00435909
0.00442434
0.0044719
0.00450164
0.0045135
0.0045075
0.00448375
0.0044424
0.0043837
0.00430795
0.00421547
0.00410669
0.00398217
0.0038424
0.00368789
0.0035194
0.00333755
0.00314312
0.00293685
0.00271953
0.00249206
0.00225526
0.00201003
0.00175739
0.00149816
0.00123342
0.000964103
0.000691242
0.000415819
0.000138871
-0.000138596
-0.000415523
-0.000690967
-0.00096386
-0.00123318
-0.00149794
-0.00175714
-0.0020098
-0.002255
-0.00249181
-0.0027193
-0.00293662
-0.00314291
-0.00333737
-0.00351921
-0.00368768
-0.00384216
-0.00398195
-0.00410652
-0.00421524
-0.0043077
-0.0043835
-0.00444221
-0.00448356
-0.00450733
-0.00451332
-0.00450146
-0.00447175
-0.0044242
-0.00435895
-0.0042762
-0.00417617
-0.00405928
-0.00392593
-0.00377656
-0.00361175
-0.00343217
-0.00323849
-0.00303146
-0.00281187
-0.00258068
-0.00233877
-0.00208714
-0.00182685
-0.00155892
-0.00128445
-0.00100464
-0.000720624
-0.000433586
-0.000144726
0.000144589
0.000433099
0.000719819
0.00100355
0.00128306
0.00155723
0.00182487
0.00208491
0.00233622
0.00257788
0.00280882
0.00302813
0.00323492
0.00342838
0.00360775
0.00377234
0.00392149
0.0040547
0.00417147
0.0042713
0.00435395
0.0044191
0.00446656
0.00449625
0.00450805
0.00450201
0.00447824
0.00443694
0.00437828
0.00430258
0.00421016
0.00410153
0.00397711
0.00383747
0.0036832
0.00351487
0.00333324
0.00313904
0.00293301
0.00271598
0.00248877
0.00225229
0.0020074
0.00175505
0.00149618
0.00123177
0.000962833
0.000690332
0.000415268
0.000138691
-0.000138416
-0.000414993
-0.000690035
-0.000962579
-0.00123154
-0.00149597
-0.0017548
-0.00200715
-0.00225204
-0.00248855
-0.00271575
-0.00293278
-0.00313883
-0.00333307
-0.00351467
-0.00368296
-0.00383726
-0.0039769
-0.00410134
-0.00420998
-0.00430232
-0.00437807
-0.00443676
-0.00447805
-0.00450183
-0.00450787
-0.00449607
-0.00446642
-0.00441894
-0.00435379
-0.00427118
-0.00417131
-0.00405458
-0.00392141
-0.00377222
-0.00360764
-0.00342829
-0.00323484
-0.00302804
-0.00280873
-0.00257781
-0.00233618
-0.00208483
-0.00182483
-0.0015572
-0.00128305
-0.00100353
-0.00071984
-0.000433109
-0.000144578
0.000144271
0.000432156
0.000718242
0.00100135
0.00128027
0.0015538
0.00182083
0.00208027
0.00233107
0.00257213
0.00280254
0.00302132
0.00322762
0.00342062
0.00359953
0.0037637
0.00391247
0.00404533
0.00416173
0.00426129
0.00434368
0.00440861
0.0044559
0.00448544
0.00449714
0.00449107
0.00446728
0.00442601
0.00436743
0.00429183
0.00419962
0.00409119
0.00396704
0.0038277
0.00367373
0.00350586
0.00332465
0.00313091
0.00292539
0.00270887
0.00248224
0.00224635
0.0020021
0.00175041
0.00149222
0.0012285
0.00096026
0.00068849
0.000414157
0.00013832
-0.000138056
-0.000413903
-0.000688214
-0.000960027
-0.00122826
-0.00149196
-0.00175018
-0.00200186
-0.00224611
-0.002482
-0.00270863
-0.00292515
-0.00313068
-0.00332442
-0.00350565
-0.00367356
-0.00382749
-0.00396687
-0.00409099
-0.00419942
-0.00429162
-0.00436722
-0.00442582
-0.00446709
-0.00449088
-0.00449696
-0.00448526
-0.00445576
-0.00440846
-0.00434353
-0.00426117
-0.00416158
-0.00404521
-0.00391237
-0.00376358
-0.00359942
-0.00342051
-0.00322754
-0.00302122
-0.00280245
-0.00257206
-0.00233098
-0.00208022
-0.0018208
-0.00155377
-0.00128025
-0.00100135
-0.000718231
-0.000432177
-0.00014425
0.000143794
0.000430737
0.000715891
0.000998059
0.00127603
0.00154867
0.0018148
0.00207337
0.00232329
0.00256353
0.00279315
0.00301114
0.0032167
0.00340898
0.00358723
0.00375077
0.00389896
0.00403128
0.0041472
0.0042463
0.00432831
0.00439292
0.00443995
0.00446926
0.00448083
0.00447468
0.0044509
0.00440965
0.00435118
0.00427582
0.00418382
0.00407573
0.00395197
0.00381308
0.00365963
0.00349231
0.00331176
0.00311873
0.00291396
0.00269827
0.00247249
0.00223749
0.00199417
0.00174346
0.00148627
0.00122362
0.000956438
0.000685726
0.000412494
0.00013777
-0.000137505
-0.00041224
-0.000685483
-0.000956205
-0.00122338
-0.00148603
-0.00174323
-0.00199395
-0.00223723
-0.00247224
-0.002698
-0.00291373
-0.0031185
-0.00331153
-0.00349209
-0.00365945
-0.0038129
-0.00395178
-0.00407554
-0.00418363
-0.0042756
-0.00435099
-0.00440944
-0.00445069
-0.00447452
-0.00448066
-0.00446909
-0.0044398
-0.00439278
-0.00432817
-0.00424619
-0.00414705
-0.00403116
-0.00389886
-0.00375065
-0.00358711
-0.00340888
-0.0032166
-0.00301105
-0.00279304
-0.00256345
-0.00232323
-0.00207334
-0.00181477
-0.00154864
-0.00127602
-0.000998048
-0.000715891
-0.000430748
-0.000143784
0.000143138
0.000428863
0.000712757
0.000993707
0.00127043
0.00154184
0.00180678
0.0020642
0.00231298
0.00255211
0.00278066
0.00299763
0.00320219
0.00339353
0.00357089
0.00373358
0.00388099
0.00401262
0.00412788
0.00422641
0.00430789
0.00437208
0.00441873
0.00444777
0.00445916
0.00445291
0.00442911
0.00438795
0.00432962
0.0042545
0.00416285
0.00405519
0.00393194
0.00379367
0.0036409
0.00347436
0.00329464
0.00310254
0.00289878
0.00268415
0.00245951
0.00222571
0.00198363
0.00173422
0.00147841
0.00121711
0.000951356
0.000682073
0.000410303
0.000137039
-0.000136753
-0.000410059
-0.00068183
-0.000951112
-0.00121688
-0.00147818
-0.001734
-0.00198341
-0.00222545
-0.00245924
-0.00268391
-0.00289853
-0.00310231
-0.00329444
-0.00347413
-0.00364069
-0.00379347
-0.00393176
-0.00405499
-0.00416268
-0.00425429
-0.00432941
-0.00438776
-0.00442889
-0.00445273
-0.004459
-0.00444762
-0.0044186
-0.00437193
-0.00430777
-0.00422627
-0.00412775
-0.00401247
-0.00388089
-0.00373348
-0.00357076
-0.00339344
-0.00320208
-0.00299752
-0.00278054
-0.00255205
-0.00231294
-0.00206413
-0.00180677
-0.00154182
-0.0012704
-0.000993697
-0.000712746
-0.000428863
-0.000143149
0.000142365
0.000426502
0.000708871
0.000988265
0.00126344
0.00153337
0.00179684
0.00205277
0.00230015
0.00253789
0.00276511
0.00298081
0.00318413
0.0033743
0.00355054
0.00371222
0.00385866
0.00398938
0.00410382
0.00420163
0.00428248
0.00434614
0.00439236
0.00442107
0.00443221
0.0044258
0.00440198
0.00436092
0.00430282
0.00422796
0.00413678
0.00402963
0.00390701
0.00376949
0.00361761
0.00345201
0.00327334
0.00308242
0.00287989
0.00266659
0.00244337
0.00221104
0.00197056
0.00172276
0.00146859
0.00120903
0.000945035
0.000677542
0.000407571
0.000136097
-0.000135843
-0.000407306
-0.000677298
-0.00094477
-0.0012088
-0.00146838
-0.00172254
-0.00197034
-0.0022108
-0.00244311
-0.00266633
-0.00287963
-0.00308218
-0.00327317
-0.00345178
-0.00361738
-0.00376929
-0.00390682
-0.00402943
-0.00413658
-0.00422778
-0.00430261
-0.00436073
-0.00440181
-0.00442564
-0.004432
-0.00442091
-0.00439223
-0.00434599
-0.00428237
-0.00420153
-0.00410367
-0.00398923
-0.00385855
-0.00371211
-0.00355043
-0.00337417
-0.00318403
-0.0029807
-0.00276501
-0.00253785
-0.00230009
-0.00205273
-0.00179681
-0.00153332
-0.00126344
-0.000988244
-0.00070885
-0.000426502
-0.000142376
0.000141444
0.000423696
0.000704223
0.000981754
0.00125513
0.00152324
0.00178496
0.00203917
0.00228481
0.00252094
0.00274655
0.00296072
0.00316261
0.00335137
0.00352626
0.00368671
0.00383199
0.00396162
0.00407513
0.00417209
0.00425219
0.0043152
0.00436088
0.00438918
0.00440001
0.00439348
0.00436964
0.00432868
0.00427081
0.00419635
0.00410563
0.00399913
0.0038773
0.00374067
0.00358979
0.00342533
0.00324795
0.00305838
0.00285736
0.00264568
0.00242411
0.00219357
0.00195493
0.00170909
0.0014569
0.00119939
0.000937485
0.000672131
0.000404299
0.000135006
-0.000134763
-0.000404066
-0.000671877
-0.000937221
-0.00119916
-0.00145668
-0.00170884
-0.0019547
-0.00219334
-0.00242386
-0.0026454
-0.00285713
-0.00305815
-0.00324774
-0.00342514
-0.00358958
-0.00374044
-0.00387709
-0.00399894
-0.00410546
-0.00419615
-0.0042706
-0.00432848
-0.00436946
-0.00439332
-0.00439986
-0.00438901
-0.00436074
-0.00431505
-0.00425205
-0.00417195
-0.00407499
-0.00396151
-0.00383187
-0.00368659
-0.00352617
-0.00335124
-0.00316247
-0.00296062
-0.00274645
-0.00252087
-0.00228478
-0.00203913
-0.00178491
-0.0015232
-0.00125511
-0.000981743
-0.000704202
-0.000423696
-0.000141423
0.000140375
0.00042051
0.000698823
0.000974204
0.00124547
0.0015115
0.00177118
0.00202339
0.00226707
0.00250129
0.00272505
0.00293745
0.0031376
0.00332476
0.00349814
0.00365713
0.00380107
0.0039295
0.00404188
0.00413783
0.00421707
0.0042793
0.00432441
0.00435221
0.00436276
0.004356
0.00433215
0.00429131
0.00423372
0.00415967
0.00406958
0.00396382
0.00384285
0.00370725
0.00355758
0.00339443
0.00321855
0.00303055
0.00283126
0.00262142
0.00240183
0.00217335
0.00193683
0.00169323
0.00144338
0.00118823
0.000928719
0.000665853
0.000400541
0.000133747
-0.000133524
-0.000400287
-0.000665609
-0.000928486
-0.00118801
-0.00144313
-0.00169299
-0.00193661
-0.00217308
-0.00240157
-0.00262116
-0.00283102
-0.00303033
-0.00321832
-0.00339421
-0.00355736
-0.00370705
-0.00384266
-0.00396363
-0.00406937
-0.00415947
-0.0042335
-0.00429112
-0.00433198
-0.00435586
-0.00436258
-0.00435207
-0.00432427
-0.00427918
-0.00421692
-0.00413769
-0.00404174
-0.00392936
-0.00380095
-0.00365701
-0.00349806
-0.00332463
-0.00313749
-0.00293735
-0.00272497
-0.00250121
-0.00226703
-0.00202332
-0.00177111
-0.00151147
-0.00124548
-0.000974226
-0.00069877
-0.000420457
-0.000140364
0.000139146
0.000416804
0.000692704
0.000965649
0.00123453
0.0014982
0.00175555
0.00200548
0.00224696
0.002479
0.00270067
0.00291105
0.00310928
0.00329458
0.00346623
0.0036236
0.00376602
0.00389304
0.00400415
0.00409899
0.00417724
0.00423865
0.00428302
0.00431032
0.00432047
0.00431355
0.00428965
0.00424894
0.00419167
0.00411812
0.00402868
0.00392376
0.00380381
0.00366939
0.00352107
0.00335943
0.00318516
0.00299902
0.00280169
0.00259392
0.00237654
0.00215042
0.00191633
0.00167525
0.00142803
0.00117557
0.00091883
0.000658738
0.000396253
0.000132328
-0.000132074
-0.000396009
-0.000658526
-0.000918597
-0.00117532
-0.00142779
-0.00167503
-0.00191612
-0.00215015
-0.00237629
-0.00259369
-0.00280143
-0.00299879
-0.00318497
-0.00335923
-0.00352084
-0.00366918
-0.0038036
-0.00392355
-0.00402846
-0.00411789
-0.00419147
-0.00424875
-0.00428948
-0.0043134
-0.00432033
-0.00431016
-0.0042829
-0.00423849
-0.00417709
-0.00409885
-0.00400403
-0.0038929
-0.0037659
-0.00362348
-0.00346613
-0.00329446
-0.00310918
-0.00291093
-0.00270058
-0.00247895
-0.00224688
-0.0020054
-0.0017555
-0.00149817
-0.00123453
-0.00096566
-0.000692693
-0.000416783
-0.000139125
0.00013777
0.000412696
0.000685853
0.000956152
0.00122234
0.00148336
0.00173809
0.00198549
0.0022245
0.00245416
0.00267348
0.0028816
0.0030777
0.00326091
0.00343064
0.00358619
0.00372696
0.0038524
0.00396212
0.00405566
0.0041328
0.00419328
0.0042369
0.00426358
0.00427334
0.00426619
0.00424229
0.00420172
0.00414479
0.00407178
0.00398308
0.0038791
0.00376031
0.00362719
0.00348036
0.00332041
0.00314801
0.00296387
0.00276873
0.00256328
0.00234836
0.00212484
0.0018935
0.00165523
0.00141095
0.00116148
0.000907786
0.000650828
0.000391477
0.00013074
-0.000130485
-0.000391255
-0.000650595
-0.000907564
-0.00116123
-0.00141068
-0.00165503
-0.00189327
-0.0021246
-0.00234814
-0.00256304
-0.00276847
-0.00296366
-0.00314781
-0.00332018
-0.00348013
-0.00362696
-0.00376009
-0.0038789
-0.00398287
-0.00407158
-0.0041446
-0.00420153
-0.0042421
-0.00426605
-0.00427318
-0.00426345
-0.00423675
-0.00419312
-0.00413265
-0.00405555
-0.00396196
-0.00385226
-0.00372682
-0.00358608
-0.00343054
-0.00326082
-0.00307757
-0.00288149
-0.00267339
-0.00245407
-0.00222445
-0.00198542
-0.00173807
-0.00148332
-0.00122233
-0.000956141
-0.000685853
-0.000412696
-0.000137749
0.000136266
0.000408185
0.000678346
0.00094567
0.00120892
0.00146702
0.00171891
0.00196351
0.00219981
0.00242679
0.00264355
0.00284921
0.00304293
0.00322391
0.0033915
0.00354504
0.00368393
0.0038077
0.00391582
0.00400803
0.00408395
0.00414336
0.00418616
0.00421222
0.00422151
0.00421411
0.00419017
0.00414978
0.00409322
0.00402084
0.00393294
0.00383
0.00371245
0.00358079
0.0034356
0.00327752
0.00310718
0.00292523
0.00273248
0.0025296
0.00231742
0.00209677
0.00186839
0.00163324
0.00139216
0.00114598
0.000895674
0.000642115
0.000386236
0.000128982
-0.000128749
-0.000386025
-0.000641892
-0.00089542
-0.00114575
-0.0013919
-0.00163302
-0.00186817
-0.00209652
-0.0023172
-0.00252939
-0.00273222
-0.00292502
-0.00310694
-0.0032773
-0.00343539
-0.00358056
-0.00371222
-0.00382977
-0.00393275
-0.00402062
-0.00409304
-0.00414958
-0.00418998
-0.00421396
-0.00422138
-0.00421207
-0.00418602
-0.00414323
-0.00408379
-0.00400787
-0.00391569
-0.00380756
-0.0036838
-0.00354491
-0.00339139
-0.00322382
-0.00304281
-0.00284909
-0.00264348
-0.00242671
-0.00219973
-0.00196344
-0.00171891
-0.00146701
-0.0012089
-0.000945659
-0.000678357
-0.000408164
-0.000136245
0.000134615
0.000403283
0.000670183
0.000934256
0.00119431
0.00144926
0.00169807
0.0019396
0.00217293
0.00239702
0.00261098
0.00281398
0.0030051
0.00318364
0.00334894
0.00350027
0.00363714
0.00375904
0.00386551
0.00395618
0.00403079
0.0040891
0.00413097
0.00415633
0.00416514
0.00415748
0.00413349
0.00409329
0.00403718
0.00396546
0.00387845
0.00377662
0.00366041
0.00353034
0.00338696
0.00323087
0.00306277
0.00288327
0.00269309
0.00249301
0.0022838
0.00206622
0.00184112
0.00160934
0.00137174
0.00112916
0.000882481
0.000632649
0.000380551
0.000127076
-0.000126875
-0.000380318
-0.000632448
-0.000882227
-0.00112889
-0.00137151
-0.00160911
-0.0018409
-0.00206599
-0.00228357
-0.00249281
-0.00269287
-0.00288304
-0.0030625
-0.00323066
-0.00338673
-0.00353011
-0.0036602
-0.0037764
-0.00387825
-0.00396522
-0.00403696
-0.00409313
-0.00413331
-0.00415733
-0.004165
-0.00415616
-0.00413083
-0.00408895
-0.00403066
-0.00395603
-0.00386535
-0.00375889
-0.00363702
-0.00350015
-0.00334881
-0.00318354
-0.00300501
-0.00281385
-0.00261092
-0.00239696
-0.00217284
-0.00193955
-0.00169803
-0.00144926
-0.00119428
-0.000934246
-0.000670172
-0.000403262
-0.000134604
0.000132857
0.000397978
0.000661385
0.000921942
0.00117858
0.00143012
0.00167557
0.00191383
0.00214397
0.00236495
0.00257591
0.00277599
0.00296435
0.00314025
0.00330302
0.00345205
0.00358672
0.00370662
0.00381128
0.00390034
0.00397353
0.00403061
0.00407151
0.00409611
0.00410441
0.00409651
0.00407243
0.00403245
0.00397683
0.00390577
0.00381977
0.00371913
0.0036044
0.00347601
0.00333459
0.00318067
0.00301495
0.00283807
0.0026507
0.00245363
0.0022476
0.00203337
0.00181177
0.00158362
0.00134976
0.00111104
0.000868315
0.000622485
0.00037441
0.000125022
-0.000124821
-0.000374209
-0.000622252
-0.000868071
-0.00111077
-0.00134951
-0.00158341
-0.00181154
-0.00203316
-0.00224737
-0.00245341
-0.00265048
-0.00283781
-0.00301471
-0.00318046
-0.00333437
-0.00347579
-0.00360416
-0.00371892
-0.00381957
-0.00390556
-0.0039766
-0.00403228
-0.00407227
-0.00409633
-0.00410425
-0.00409595
-0.00407139
-0.00403048
-0.00397336
-0.00390017
-0.00381112
-0.00370648
-0.0035866
-0.00345191
-0.00330291
-0.00314014
-0.00296426
-0.0027759
-0.00257584
-0.00236486
-0.00214388
-0.00191379
-0.00167554
-0.0014301
-0.00117855
-0.000921942
-0.000661363
-0.000397957
-0.000132847
0.000130962
0.000392314
0.000651972
0.000908824
0.00116174
0.00140964
0.00165156
0.0018863
0.002113
0.00233067
0.00253841
0.0027354
0.00292079
0.00309388
0.00325398
0.00340049
0.00353285
0.00365061
0.0037533
0.00384065
0.00391232
0.00396814
0.00400799
0.00403179
0.00403954
0.00403133
0.00400723
0.00396748
0.00391233
0.00384208
0.00375708
0.00365777
0.00354457
0.00341801
0.00327866
0.00312708
0.00296392
0.00278983
0.00260545
0.00241159
0.00220896
0.00199831
0.00178043
0.00155618
0.00132633
0.00109172
0.000853174
0.0006116
0.000367888
0.000122862
-0.000122619
-0.000367676
-0.000611399
-0.000852952
-0.00109145
-0.00132608
-0.00155594
-0.00178022
-0.00199809
-0.00220872
-0.00241139
-0.00260523
-0.00278958
-0.00296368
-0.00312686
-0.00327846
-0.0034178
-0.00354432
-0.00365753
-0.00375687
-0.00384188
-0.00391213
-0.00396728
-0.00400706
-0.00403113
-0.00403938
-0.00403162
-0.00400786
-0.00396802
-0.00391217
-0.00384048
-0.00375315
-0.00365046
-0.00353275
-0.00340037
-0.00325385
-0.00309376
-0.0029207
-0.00273528
-0.00253836
-0.00233059
-0.00211294
-0.00188626
-0.00165147
-0.00140961
-0.00116175
-0.000908813
-0.00065194
-0.000392303
-0.000130951
0.00012895
0.000386311
0.000642009
0.000894859
0.00114388
0.00138794
0.00162605
0.00185707
0.00208014
0.00229429
0.00249862
0.0026923
0.00287458
0.00304466
0.00320195
0.00334579
0.00347569
0.00359117
0.00369184
0.00377733
0.0038474
0.00390188
0.00394063
0.00396357
0.00397073
0.00396218
0.00393807
0.00389859
0.00384396
0.00377453
0.00369064
0.00359269
0.00348117
0.00335655
0.00321938
0.0030703
0.00290984
0.00273869
0.00255751
0.00236705
0.00216802
0.00196118
0.00174726
0.00152711
0.00130149
0.00107125
0.000837154
0.000600123
0.000360963
0.000120533
-0.000120321
-0.000360751
-0.0005999
-0.000836921
-0.00107101
-0.00130124
-0.00152687
-0.00174704
-0.00196093
-0.0021678
-0.00236684
-0.00255729
-0.00273846
-0.0029096
-0.00307006
-0.00321918
-0.00335633
-0.00348092
-0.00359247
-0.0036904
-0.00377432
-0.00384377
-0.0038984
-0.0039379
-0.00396204
-0.00397056
-0.00396342
-0.00394046
-0.00390174
-0.00384726
-0.00377716
-0.00369167
-0.00359105
-0.00347558
-0.00334567
-0.00320181
-0.00304455
-0.00287446
-0.00269224
-0.00249855
-0.00229422
-0.00208008
-0.00185704
-0.00162598
-0.00138792
-0.00114387
-0.000894848
-0.000641966
-0.000386311
-0.00012895
0.000126854
0.00037999
0.000631463
0.000880173
0.00112504
0.00136506
0.00159912
0.00182627
0.00204552
0.00225593
0.00245666
0.0026469
0.00282584
0.0029928
0.00314708
0.00328814
0.00341545
0.00352854
0.00362701
0.0037106
0.00377903
0.00383205
0.00386961
0.00389167
0.00389824
0.00388936
0.00386522
0.00382601
0.00377196
0.00370337
0.00362067
0.00352415
0.0034144
0.00329182
0.00315697
0.0030105
0.0028529
0.00268487
0.00250707
0.00232016
0.00212494
0.00192211
0.00171235
0.00149653
0.00127536
0.00104969
0.000820298
0.000588021
0.0003537
0.000118119
-0.000117886
-0.000353477
-0.00058783
-0.000820076
-0.00104945
-0.0012751
-0.00149628
-0.00171211
-0.00192185
-0.00212473
-0.00231996
-0.00250684
-0.00268464
-0.00285266
-0.00301026
-0.00315678
-0.00329161
-0.00341418
-0.00352391
-0.00362043
-0.00370318
-0.00377175
-0.00382581
-0.00386504
-0.00388919
-0.00389809
-0.00389152
-0.00386945
-0.0038319
-0.00377885
-0.00371045
-0.00362688
-0.00352838
-0.00341531
-0.00328803
-0.00314695
-0.00299268
-0.00282575
-0.00264681
-0.00245659
-0.00225587
-0.00204546
-0.0018262
-0.00159909
-0.00136501
-0.00112503
-0.000880163
-0.000631452
-0.000379968
-0.000126843
0.00012463
0.000373351
0.00062043
0.000864789
0.0011053
0.00134106
0.00157095
0.00179395
0.00200918
0.00221576
0.0024127
0.00259932
0.00277477
0.00293844
0.00308957
0.00322771
0.00335231
0.00346287
0.00355912
0.00364071
0.00370734
0.00375889
0.00379526
0.00381636
0.00382231
0.00381309
0.00378894
0.00375001
0.00369656
0.0036289
0.00354737
0.00345243
0.0033445
0.00322406
0.00309169
0.00294791
0.00279332
0.00262858
0.00245429
0.00227112
0.00207988
0.00188122
0.00167583
0.00146451
0.00124802
0.00102714
0.00080267
0.000575389
0.000346087
0.000115578
-0.000115334
-0.000345865
-0.000575167
-0.000802447
-0.00102691
-0.00124779
-0.00146429
-0.0016756
-0.00188095
-0.00207965
-0.00227092
-0.00245406
-0.00262833
-0.00279309
-0.00294767
-0.00309146
-0.00322386
-0.00334429
-0.00345221
-0.00354716
-0.00362867
-0.00369636
-0.00374983
-0.00378877
-0.00381292
-0.00382212
-0.00381623
-0.00379508
-0.00375873
-0.00370718
-0.00364053
-0.00355899
-0.00346276
-0.00335219
-0.00322761
-0.00308946
-0.0029383
-0.00277469
-0.00259923
-0.00241264
-0.00221567
-0.00200914
-0.00179391
-0.0015709
-0.00134103
-0.00110529
-0.000864747
-0.000620399
-0.00037334
-0.00012462
0.000122312
0.000366448
0.000608921
0.000848695
0.00108477
0.00131605
0.00154155
0.00176029
0.00197136
0.00217384
0.00236689
0.00254972
0.00272156
0.00288175
0.00302964
0.00316475
0.00328652
0.00339448
0.00348835
0.00356784
0.00363267
0.00368266
0.00371775
0.00373791
0.00374321
0.00373367
0.00370949
0.00367084
0.00361804
0.00355133
0.0034711
0.00337773
0.00327175
0.00315357
0.00302372
0.0028828
0.00273133
0.00256999
0.00239935
0.00222014
0.00203298
0.00183867
0.00163782
0.00143123
0.0012196
0.0010037
0.000784342
0.000562218
0.000338188
0.000112941
-0.000112719
-0.000337945
-0.000562006
-0.000784109
-0.00100348
-0.00121936
-0.001431
-0.0016376
-0.00183842
-0.00203276
-0.0022199
-0.0023991
-0.00256976
-0.0027311
-0.00288255
-0.00302351
-0.00315334
-0.00327153
-0.00337753
-0.00347091
-0.00355112
-0.0036178
-0.00367066
-0.00370931
-0.00373351
-0.00374305
-0.00373777
-0.0037176
-0.00368248
-0.00363249
-0.00356767
-0.00348822
-0.00339435
-0.00328638
-0.00316464
-0.00302955
-0.00288165
-0.00272144
-0.00254961
-0.00236681
-0.00217377
-0.00197128
-0.00176024
-0.00154152
-0.00131601
-0.00108474
-0.000848695
-0.000608879
-0.000366416
-0.000122333
0.000119929
0.000359269
0.000596957
0.00083204
0.00106343
0.00129012
0.00151106
0.00172537
0.00193211
0.00213038
0.00231936
0.00249826
0.00266635
0.00282298
0.00296751
0.00309944
0.00321828
0.00332356
0.00341498
0.00349231
0.00355523
0.00360364
0.00363745
0.00365662
0.00366122
0.00365134
0.00362715
0.00358883
0.00353668
0.00347099
0.00339209
0.0033004
0.0031964
0.00308052
0.00295336
0.00281539
0.00266716
0.00250934
0.00234251
0.00216731
0.00198449
0.00179465
0.0015985
0.00139677
0.0011902
0.000979456
0.000765358
0.000548644
0.000329962
0.000110188
-0.000109966
-0.000329729
-0.00054838
-0.000765146
-0.000979255
-0.00118996
-0.00139656
-0.00159826
-0.0017944
-0.00198426
-0.00216708
-0.00234227
-0.00250909
-0.00266691
-0.00281512
-0.00295314
-0.00308032
-0.00319619
-0.00330021
-0.00339189
-0.00347077
-0.00353647
-0.00358864
-0.00362697
-0.00365119
-0.00366106
-0.00365646
-0.00363727
-0.00360345
-0.00355507
-0.00349216
-0.00341486
-0.00332342
-0.00321814
-0.00309933
-0.00296742
-0.00282289
-0.00266624
-0.00249815
-0.00231925
-0.0021303
-0.00193207
-0.00172532
-0.00151103
-0.00129006
-0.00106339
-0.000832019
-0.000596968
-0.000359237
-0.000119919
0.000117441
0.000351847
0.000584654
0.000814835
0.0010414
0.00126333
0.00147961
0.00168934
0.00189158
0.00208551
0.0022703
0.00244515
0.00260937
0.0027623
0.00290336
0.00303204
0.00314787
0.00325038
0.00333927
0.00341435
0.00347534
0.00352212
0.00355457
0.00357274
0.00357666
0.00356645
0.00354225
0.00350426
0.00345279
0.00338813
0.00331062
0.00322069
0.00311875
0.0030053
0.00288084
0.00274591
0.00260104
0.00244687
0.00228395
0.00211294
0.00193451
0.00174931
0.001558
0.00136131
0.00115991
0.000954521
0.000745813
0.000534605
0.000321534
0.000107361
-0.000107139
-0.00032129
-0.000534361
-0.00074559
-0.000954278
-0.00115968
-0.00136109
-0.00155778
-0.00174909
-0.00193427
-0.0021127
-0.0022837
-0.00244659
-0.0026008
-0.00274568
-0.00288062
-0.00300508
-0.00311855
-0.00322047
-0.00331043
-0.00338794
-0.00345258
-0.00350407
-0.00354206
-0.00356629
-0.00357649
-0.00357258
-0.00355441
-0.00352194
-0.00347518
-0.00341421
-0.00333916
-0.00325027
-0.00314771
-0.00303193
-0.00290326
-0.00276221
-0.00260926
-0.00244505
-0.0022702
-0.00208544
-0.00189154
-0.00168926
-0.00147954
-0.00126326
-0.00104135
-0.000814846
-0.000584633
-0.000351826
-0.000117441
0.000114911
0.000344224
0.000571991
0.000797164
0.00101876
0.00123579
0.00144727
0.00165229
0.00184994
0.0020394
0.00221987
0.00239058
0.00255083
0.00269998
0.00283745
0.0029628
0.0030755
0.00317518
0.00326151
0.00333429
0.00339328
0.00343838
0.00346951
0.0034866
0.00348985
0.00347929
0.00345509
0.00341747
0.0033667
0.00330312
0.00322705
0.00313888
0.00303911
0.00292813
0.00280647
0.00267465
0.00253323
0.00238279
0.00222391
0.00205719
0.00188329
0.00170283
0.00151651
0.00132494
0.00112887
0.000928909
0.000725812
0.000520248
0.000312883
0.000104492
-0.000104259
-0.00031265
-0.000520004
-0.000725579
-0.000928676
-0.00112863
-0.00132473
-0.00151628
-0.00170261
-0.00188305
-0.00205695
-0.00222366
-0.00238253
-0.00253299
-0.00267442
-0.00280627
-0.0029279
-0.00303888
-0.00313867
-0.00322686
-0.00330292
-0.00336651
-0.00341727
-0.0034549
-0.0034791
-0.00348969
-0.00348645
-0.00346933
-0.00343819
-0.00339315
-0.00333417
-0.00326141
-0.00317506
-0.00307538
-0.00296267
-0.00283736
-0.00269988
-0.0025507
-0.00239048
-0.00221977
-0.00203932
-0.00184988
-0.00165221
-0.0014472
-0.00123574
-0.00101874
-0.000797143
-0.00057198
-0.000344213
-0.0001149
0.000112317
0.000336431
0.000559021
0.000779069
0.000995603
0.0012076
0.00141417
0.00161435
0.00180734
0.00199223
0.00216828
0.00233473
0.0024909
0.00263622
0.00277005
0.00289196
0.00300149
0.00309826
0.00318201
0.00325242
0.00330937
0.00335276
0.00338248
0.00339855
0.0034011
0.00339019
0.003366
0.00332877
0.00327875
0.00321626
0.00314166
0.00305533
0.00295778
0.0028493
0.00273053
0.00260192
0.002464
0.00231739
0.0021626
0.00200028
0.00183099
0.00165543
0.00147417
0.00128786
0.00109719
0.000902799
0.000705388
0.000505573
0.000304074
0.000101538
-0.000101305
-0.000303831
-0.000505329
-0.000705155
-0.000902588
-0.00109696
-0.00128763
-0.00147392
-0.00165518
-0.00183078
-0.00200004
-0.00216236
-0.00231713
-0.00246376
-0.00260171
-0.00273029
-0.00284909
-0.00295752
-0.00305512
-0.00314145
-0.00321606
-0.00327857
-0.00332857
-0.0033658
-0.00339
-0.00340093
-0.00339839
-0.00338231
-0.0033526
-0.00330923
-0.0032523
-0.00318188
-0.00309816
-0.00300136
-0.00289182
-0.00276995
-0.0026361
-0.00249079
-0.00233461
-0.00216817
-0.00199216
-0.00180726
-0.00161429
-0.00141411
-0.00120755
-0.00099556
-0.000779069
-0.00055901
-0.00033642
-0.000112295
0.000109648
0.00032849
0.000545817
0.000760636
0.000971981
0.00117889
0.00138044
0.00157574
0.0017639
0.00194414
0.00211571
0.00227783
0.00242986
0.00257123
0.00270136
0.00281978
0.00292613
0.00301995
0.00310099
0.00316906
0.00322392
0.00326558
0.00329388
0.00330892
0.00331073
0.00329949
0.00327532
0.00323849
0.00318927
0.0031279
0.00305481
0.00297036
0.002875
0.00276916
0.00265329
0.00252796
0.00239361
0.00225089
0.0021003
0.00194244
0.00177787
0.00160725
0.00143115
0.00125017
0.00106502
0.000876287
0.000684625
0.000490676
0.000295106
9.85629e-05
-9.83088e-05
-0.000294852
-0.000490464
-0.000684403
-0.000876065
-0.00106478
-0.00124995
-0.00143089
-0.00160697
-0.00177765
-0.00194218
-0.00210004
-0.00225066
-0.00239341
-0.00252774
-0.00265308
-0.00276893
-0.00287478
-0.00297013
-0.00305461
-0.0031277
-0.00318905
-0.00323829
-0.00327513
-0.00329932
-0.00331059
-0.00330876
-0.00329373
-0.00326543
-0.00322381
-0.00316891
-0.00310086
-0.00301981
-0.00292597
-0.00281969
-0.00270124
-0.0025711
-0.00242977
-0.0022777
-0.00211559
-0.00194407
-0.00176383
-0.00157567
-0.00138037
-0.00117886
-0.00097196
-0.000760636
-0.000545786
-0.000328479
-0.000109659
0.00010697
0.000320433
0.000532413
0.000741895
0.000947999
0.00114975
0.00134621
0.00153651
0.00171984
0.00189535
0.00206235
0.00222008
0.00236793
0.0025053
0.00263166
0.00274659
0.00284966
0.00294047
0.00301883
0.00308448
0.00313729
0.00317715
0.00320405
0.00321802
0.00321916
0.00320759
0.00318345
0.00314702
0.00309856
0.00303836
0.00296683
0.00288431
0.00279119
0.00268797
0.00257511
0.00245308
0.00232237
0.0021836
0.00203724
0.00188389
0.00172411
0.00155848
0.00138759
0.00121204
0.00103247
0.000849458
0.000663629
0.00047562
0.000286032
9.55136e-05
-9.52806e-05
-0.0002858
-0.000475397
-0.000663407
-0.000849225
-0.0010322
-0.0012118
-0.00138733
-0.00155822
-0.00172385
-0.00188365
-0.00203703
-0.00218335
-0.00232214
-0.00245285
-0.00257487
-0.00268774
-0.00279097
-0.00288408
-0.00296661
-0.00303817
-0.00309835
-0.00314682
-0.00318328
-0.00320739
-0.00321901
-0.00321788
-0.0032039
-0.00317704
-0.00313716
-0.00308433
-0.00301869
-0.00294034
-0.0028495
-0.00274647
-0.00263155
-0.00250518
-0.00236782
-0.00221995
-0.00206225
-0.00189526
-0.00171976
-0.00153644
-0.00134616
-0.00114972
-0.000947978
-0.000741906
-0.000532392
-0.000320422
-0.00010697
0.000104259
0.00031228
0.000518839
0.000723006
0.000923764
0.00112025
0.00131162
0.00149688
0.00167528
0.00184604
0.0020084
0.00216171
0.00230533
0.00243868
0.00256126
0.00267261
0.00277238
0.00286021
0.0029358
0.00299904
0.00304977
0.00308786
0.00311335
0.00312627
0.00312671
0.00311478
0.00309069
0.00305469
0.00300705
0.00294807
0.00287806
0.00279745
0.00270667
0.00260611
0.00249625
0.00237755
0.00225056
0.00211575
0.00197368
0.00182489
0.00166991
0.00150933
0.00134371
0.00117362
0.000999647
0.000822416
0.000642474
0.000460447
0.000276895
9.24854e-05
-9.22419e-05
-0.000276673
-0.000460204
-0.000642263
-0.000822183
-0.000999404
-0.00117334
-0.00134347
-0.00150908
-0.00166966
-0.00182465
-0.00197343
-0.00211552
-0.00225032
-0.00237734
-0.00249603
-0.00260587
-0.00270643
-0.00279724
-0.00287785
-0.00294784
-0.00300683
-0.00305452
-0.00309053
-0.0031146
-0.00312656
-0.00312612
-0.00311321
-0.00308772
-0.00304964
-0.00299891
-0.00293568
-0.00286006
-0.00277224
-0.00267247
-0.00256114
-0.00243855
-0.00230522
-0.00216159
-0.0020083
-0.00184594
-0.00167523
-0.00149681
-0.00131155
-0.00112025
-0.000923753
-0.000722964
-0.000518829
-0.00031228
-0.000104249
0.000101538
0.000304085
0.000505192
0.000703927
0.00089938
0.00109061
0.00127676
0.00145698
0.00163043
0.00179639
0.00195412
0.00210298
0.00224232
0.00237163
0.00249036
0.00259817
0.0026946
0.00277939
0.0028523
0.00291311
0.00296171
0.00299807
0.00302213
0.00303399
0.00303373
0.00302147
0.00299745
0.00296189
0.00291505
0.00285729
0.00278888
0.00271022
0.00262176
0.00252388
0.00241703
0.00230174
0.00217844
0.00204764