/*--------------------------------*- C++ -*----------------------------------*\
  =========                 |
  \\      /  F ield         | OpenFOAM: The Open Source CFD Toolbox
   \\    /   O peration     | Website:  https://openfoam.org
    \\  /    A nd           | Version:  7
     \\/     M anipulation  |
\*---------------------------------------------------------------------------*/
FoamFile
{
    version     2.0;
    format      ascii;
    class       volScalarField;
    location    "0.024";
    object      gradTy;
}
// * * * * * * * * * * * * * * * * * * * * * * * * * * * * * * * * * * * * * //

dimensions      [0 -1 0 1 0 0 0];

internalField   nonuniform List<scalar> 
10000
(
0.00336743
0.00338048
0.0034068
0.00344638
0.00349902
0.00356483
0.00364378
0.00373596
0.00384133
0.00395988
0.00409159
0.00423641
0.00439424
0.0045649
0.00474831
0.00494427
0.0051525
0.00537274
0.00560453
0.00584747
0.006101
0.00636457
0.00663752
0.00691917
0.00720878
0.00750557
0.00780874
0.00811744
0.00843078
0.00874778
0.00906739
0.00938839
0.0097093
0.0100284
0.0103437
0.0106532
0.0109544
0.011245
0.0115231
0.0117868
0.0120347
0.0122656
0.0124783
0.012671
0.0128412
0.0129861
0.0131033
0.0131914
0.01325
0.0132791
0.0132791
0.0132499
0.0131914
0.0131033
0.0129861
0.0128412
0.012671
0.0124783
0.0122656
0.0120346
0.0117868
0.0115231
0.011245
0.0109544
0.0106532
0.0103438
0.0100284
0.0097093
0.00938838
0.0090674
0.0087478
0.00843078
0.00811744
0.00780875
0.00750559
0.00720879
0.00691916
0.00663751
0.00636455
0.00610099
0.00584746
0.00560454
0.00537276
0.00515254
0.00494427
0.00474831
0.00456487
0.00439416
0.00423636
0.00409161
0.00395991
0.00384133
0.00373597
0.0036438
0.00356481
0.00349902
0.00344637
0.00340678
0.00338036
0.00336732
0.0100936
0.010133
0.0102117
0.0103301
0.0104881
0.0106855
0.0109225
0.011199
0.0115152
0.011871
0.0122663
0.0127009
0.0131746
0.013687
0.0142376
0.0148259
0.015451
0.0161122
0.0168082
0.0175376
0.0182989
0.0190904
0.0199101
0.020756
0.0216258
0.0225172
0.0234277
0.0243548
0.025296
0.0262483
0.0272085
0.0281731
0.0291376
0.0300971
0.0310455
0.0319763
0.0328823
0.0337565
0.0345926
0.0353851
0.03613
0.0368242
0.0374643
0.0380451
0.0385585
0.0389955
0.0393486
0.0396134
0.039789
0.0398763
0.0398763
0.039789
0.0396134
0.0393486
0.0389956
0.0385585
0.0380451
0.0374643
0.0368242
0.03613
0.0353851
0.0345926
0.0337565
0.0328822
0.0319763
0.0310455
0.0300971
0.0291376
0.0281731
0.0272085
0.0262482
0.025296
0.0243548
0.0234277
0.0225171
0.0216258
0.020756
0.0199101
0.0190904
0.0182989
0.0175376
0.0168082
0.0161122
0.0154511
0.0148259
0.0142375
0.0136869
0.0131745
0.0127008
0.0122663
0.0118711
0.0115153
0.011199
0.0109225
0.0106855
0.0104881
0.0103303
0.0102119
0.0101327
0.0100933
0.0167927
0.0168586
0.0169899
0.0171871
0.0174503
0.0177795
0.0181746
0.0186358
0.0191631
0.0197564
0.0204156
0.0211405
0.0219307
0.0227856
0.0237044
0.0246863
0.0257298
0.0268334
0.0279953
0.0292131
0.0304845
0.0318063
0.0331753
0.0345881
0.036041
0.0375299
0.0390508
0.0405996
0.0421719
0.0437631
0.0453682
0.0469811
0.048595
0.0502013
0.0517899
0.0533495
0.0548677
0.0563324
0.0577323
0.0590582
0.0603035
0.0614647
0.0625379
0.0635148
0.0643808
0.0651178
0.0657111
0.0661537
0.0664456
0.0665901
0.0665901
0.0664456
0.0661537
0.0657111
0.0651178
0.0643809
0.0635148
0.0625379
0.0614647
0.0603035
0.0590581
0.0577323
0.0563324
0.0548677
0.0533495
0.0517899
0.0502012
0.048595
0.0469811
0.0453681
0.043763
0.0421718
0.0405995
0.0390508
0.0375298
0.0360409
0.0345881
0.0331753
0.0318062
0.0304844
0.0292131
0.0279952
0.0268334
0.0257297
0.0246863
0.0237044
0.0227856
0.0219307
0.0211405
0.0204156
0.0197564
0.0191631
0.0186358
0.0181745
0.0177794
0.0174502
0.0171872
0.01699
0.0168585
0.0167925
0.0234466
0.0235388
0.023723
0.0239993
0.0243679
0.0248289
0.0253824
0.0260285
0.0267674
0.0275987
0.0285226
0.0295387
0.0306464
0.0318451
0.0331337
0.0345109
0.035975
0.0375238
0.0391545
0.0408642
0.0426492
0.0445054
0.0464282
0.0484125
0.0504531
0.0525444
0.0546808
0.0568563
0.0590653
0.0613014
0.063558
0.0658273
0.0680998
0.0703638
0.0726048
0.0748063
0.0769498
0.0790169
0.0809905
0.0828567
0.084607
0.0862395
0.0877543
0.0891426
0.0903799
0.0914319
0.0922727
0.0928932
0.0932981
0.0934971
0.0934971
0.0932982
0.0928933
0.0922727
0.0914319
0.0903799
0.0891426
0.0877544
0.0862396
0.084607
0.0828567
0.0809905
0.0790169
0.0769498
0.0748062
0.0726048
0.0703637
0.0680998
0.0658273
0.063558
0.0613014
0.0590652
0.0568563
0.0546807
0.0525444
0.0504531
0.0484125
0.0464281
0.0445054
0.0426492
0.0408642
0.0391545
0.0375237
0.035975
0.0345109
0.0331337
0.0318451
0.0306464
0.0295387
0.0285226
0.0275988
0.0267674
0.0260285
0.0253824
0.0248288
0.0243678
0.0239991
0.0237229
0.0235388
0.0234467
0.0300376
0.0301561
0.030393
0.0307484
0.0312226
0.0318157
0.0325278
0.0333593
0.0343101
0.0353803
0.0365698
0.0378782
0.039305
0.0408493
0.04251
0.0442852
0.0461728
0.0481703
0.0502741
0.0524803
0.0547843
0.0571805
0.0596631
0.0622254
0.0648605
0.0675611
0.0703198
0.0731294
0.0759823
0.0788713
0.0817884
0.0847247
0.0876687
0.0906059
0.0935173
0.09638
0.0991683
0.101856
0.104418
0.106834
0.109092
0.111197
0.113163
0.114987
0.116631
0.118024
0.119122
0.119916
0.120425
0.120671
0.120671
0.120425
0.119916
0.119122
0.118024
0.116631
0.114987
0.113163
0.111197
0.109092
0.106834
0.104418
0.101856
0.0991683
0.09638
0.0935173
0.0906058
0.0876687
0.0847246
0.0817884
0.0788712
0.0759822
0.0731293
0.0703198
0.0675611
0.0648605
0.0622254
0.0596631
0.0571805
0.0547843
0.0524804
0.0502742
0.0481703
0.0461729
0.0442852
0.04251
0.0408494
0.0393051
0.0378783
0.0365699
0.0353804
0.0343102
0.0333593
0.0325279
0.0318157
0.0312226
0.0307483
0.0303929
0.0301561
0.0300377
0.0365473
0.0366921
0.0369817
0.0374164
0.0379962
0.0387216
0.0395928
0.0406101
0.0417735
0.0430834
0.0445396
0.0461418
0.0478895
0.0497816
0.0518169
0.0539935
0.0563087
0.0587594
0.0613416
0.0640504
0.06688
0.0698237
0.0728741
0.0760229
0.0792613
0.0825801
0.0859701
0.0894224
0.0929283
0.0964795
0.100068
0.103684
0.107316
0.110946
0.114552
0.118104
0.121565
0.124898
0.128072
0.131051
0.133811
0.136376
0.138796
0.141098
0.143217
0.144998
0.146361
0.147312
0.1479
0.148179
0.148179
0.1479
0.147312
0.146361
0.144998
0.143217
0.141098
0.138796
0.136376
0.133811
0.131051
0.128072
0.124898
0.121565
0.118104
0.114552
0.110946
0.107316
0.103684
0.100068
0.0964794
0.0929282
0.0894224
0.0859701
0.0825801
0.0792613
0.0760229
0.0728741
0.0698237
0.06688
0.0640504
0.0613417
0.0587595
0.0563088
0.0539935
0.051817
0.0497817
0.0478895
0.0461419
0.0445396
0.0430834
0.0417736
0.0406101
0.0395928
0.0387217
0.0379963
0.0374164
0.0369817
0.0366921
0.0365473
0.0429572
0.0431283
0.0434708
0.0439847
0.0446704
0.0455283
0.0465589
0.0477624
0.0491392
0.0506897
0.0524138
0.0543115
0.0563821
0.0586247
0.0610379
0.0636197
0.0663672
0.0692768
0.0723438
0.0755625
0.0789261
0.0824266
0.0860549
0.0898008
0.0936534
0.0976015
0.101634
0.105739
0.109908
0.114132
0.118402
0.122712
0.12705
0.1314
0.135733
0.14001
0.144182
0.148197
0.152016
0.155583
0.158827
0.161799
0.164649
0.167495
0.170244
0.172496
0.174118
0.175175
0.175791
0.176071
0.176071
0.175791
0.175175
0.174118
0.172496
0.170244
0.167495
0.164649
0.161799
0.158827
0.155583
0.152016
0.148197
0.144182
0.14001
0.135733
0.1314
0.12705
0.122712
0.118402
0.114132
0.109908
0.105739
0.101634
0.0976015
0.0936534
0.0898007
0.0860549
0.0824266
0.0789261
0.0755625
0.0723438
0.0692768
0.0663673
0.0636198
0.061038
0.0586247
0.0563821
0.0543115
0.0524139
0.0506897
0.0491392
0.0477624
0.0465588
0.0455284
0.0446705
0.0439847
0.0434708
0.0431283
0.0429572
0.0492488
0.0494463
0.0498415
0.0504348
0.0512265
0.0522171
0.0534072
0.0547975
0.0563884
0.0581804
0.0601738
0.0623686
0.0647645
0.0673605
0.0701553
0.0731467
0.0763319
0.0797067
0.0832661
0.0870035
0.0909112
0.0949797
0.099198
0.103554
0.108034
0.112625
0.117313
0.122084
0.126926
0.131832
0.136795
0.141812
0.146876
0.151973
0.157075
0.162129
0.167066
0.171802
0.176326
0.180555
0.184232
0.187463
0.190624
0.194111
0.19789
0.200746
0.202563
0.203604
0.204144
0.204369
0.204369
0.204144
0.203604
0.202563
0.200746
0.19789
0.194111
0.190624
0.187463
0.184232
0.180555
0.176326
0.171802
0.167066
0.162129
0.157075
0.151973
0.146876
0.141812
0.136795
0.131832
0.126926
0.122084
0.117313
0.112625
0.108034
0.103554
0.099198
0.0949797
0.0909112
0.0870036
0.0832661
0.0797067
0.0763319
0.0731468
0.0701554
0.0673606
0.0647645
0.0623687
0.0601739
0.0581805
0.0563884
0.0547975
0.0534072
0.0522171
0.0512265
0.0504349
0.0498416
0.0494463
0.0492487
0.0554032
0.0556272
0.0560752
0.0567477
0.0576454
0.0587688
0.0601188
0.0616961
0.0635017
0.0655362
0.0678003
0.0702941
0.0730175
0.07597
0.0791503
0.0825563
0.086185
0.0900323
0.0940927
0.098359
0.102822
0.107472
0.112295
0.117277
0.122401
0.127651
0.13301
0.13846
0.143988
0.149584
0.155246
0.160978
0.166785
0.172662
0.178588
0.184491
0.190275
0.19575
0.201061
0.206213
0.210217
0.213332
0.216409
0.220574
0.226601
0.230178
0.231925
0.232677
0.232954
0.233034
0.233034
0.232954
0.232677
0.231925
0.230178
0.226601
0.220574
0.216409
0.213332
0.210217
0.206213
0.201061
0.19575
0.190275
0.184491
0.178588
0.172662
0.166785
0.160978
0.155246
0.149584
0.143988
0.13846
0.13301
0.127651
0.122401
0.117277
0.112295
0.107472
0.102822
0.0983591
0.0940927
0.0900324
0.0861851
0.0825563
0.0791503
0.0759701
0.0730176
0.0702941
0.0678003
0.0655363
0.0635018
0.0616962
0.0601188
0.0587688
0.0576454
0.0567478
0.0560752
0.0556271
0.0554032
0.0614017
0.0616519
0.0621527
0.0629045
0.063908
0.0651642
0.0666741
0.0684387
0.0704595
0.0727373
0.0752732
0.0780677
0.0811211
0.0844332
0.088003
0.0918286
0.0959074
0.100235
0.104806
0.109613
0.114645
0.119892
0.125337
0.130963
0.136751
0.142681
0.14873
0.154876
0.161102
0.167393
0.173754
0.180198
0.186754
0.193435
0.20026
0.207111
0.213937
0.220008
0.2261
0.233169
0.237241
0.239392
0.241261
0.245331
0.257919
0.261599
0.262445
0.262386
0.262123
0.261939
0.261939
0.262123
0.262386
0.262445
0.261599
0.257919
0.245331
0.241261
0.239392
0.237241
0.233169
0.2261
0.220008
0.213937
0.207111
0.20026
0.193435
0.186754
0.180198
0.173754
0.167393
0.161102
0.154876
0.14873
0.142681
0.136751
0.130963
0.125337
0.119892
0.114645
0.109613
0.104806
0.100235
0.0959075
0.0918288
0.0880031
0.0844333
0.0811212
0.0780678
0.0752732
0.0727374
0.0704595
0.0684388
0.0666741
0.0651642
0.063908
0.0629044
0.0621527
0.0616519
0.0614017
0.0672249
0.0675014
0.0680548
0.0688855
0.0699947
0.0713834
0.0730531
0.0750052
0.0772413
0.079763
0.0825717
0.0856685
0.0890542
0.0927289
0.0966922
0.100943
0.105478
0.110294
0.115386
0.120745
0.126362
0.132223
0.138311
0.144605
0.151081
0.157714
0.164478
0.171344
0.178281
0.185269
0.192316
0.199449
0.206743
0.214213
0.222057
0.22991
0.238512
0.244404
0.250327
0.263289
0.266353
0.265904
0.26408
0.261739
0.259303
0.257013
0.255029
0.253458
0.252372
0.251819
0.251819
0.252372
0.253458
0.255029
0.257013
0.259303
0.261739
0.26408
0.265904
0.266353
0.263289
0.250327
0.244404
0.238512
0.22991
0.222056
0.214213
0.206743
0.199449
0.192316
0.185269
0.178281
0.171344
0.164478
0.157714
0.151081
0.144605
0.138311
0.132223
0.126362
0.120745
0.115386
0.110294
0.105478
0.100943
0.0966923
0.0927289
0.0890542
0.0856685
0.0825718
0.0797631
0.0772413
0.0750052
0.0730531
0.0713835
0.0699947
0.0688856
0.0680548
0.0675014
0.0672249
0.0728537
0.0731563
0.073762
0.0746714
0.0758858
0.0774066
0.0792356
0.0813748
0.0838263
0.0865921
0.0896742
0.0930745
0.0967944
0.100835
0.105195
0.109876
0.114874
0.120187
0.12581
0.131736
0.137954
0.14445
0.151205
0.158193
0.165385
0.172752
0.180264
0.187884
0.195556
0.203234
0.210946
0.218694
0.226716
0.23478
0.244009
0.25213
0.265971
0.268945
0.267692
0.264472
0.260144
0.254955
0.248576
0.239404
0.221697
0.213278
0.208353
0.205195
0.20324
0.202295
0.202295
0.20324
0.205195
0.208353
0.213278
0.221697
0.239404
0.248576
0.254955
0.260144
0.264472
0.267692
0.268945
0.265971
0.25213
0.244009
0.23478
0.226716
0.218694
0.210946
0.203234
0.195556
0.187884
0.180264
0.172752
0.165385
0.158193
0.151205
0.14445
0.137954
0.131736
0.12581
0.120187
0.114874
0.109876
0.105195
0.100835
0.0967944
0.0930746
0.0896743
0.0865921
0.0838263
0.0813748
0.0792356
0.0774066
0.0758858
0.0746714
0.0737619
0.0731563
0.0728537
0.0782686
0.0785971
0.0792547
0.0802422
0.0815611
0.0832133
0.0852009
0.0875265
0.0901928
0.0932025
0.0965583
0.100263
0.104318
0.108726
0.113488
0.118603
0.124071
0.129889
0.136054
0.142559
0.149396
0.156551
0.164
0.171715
0.179658
0.187792
0.196091
0.204525
0.212983
0.221328
0.229703
0.237834
0.246817
0.254359
0.26725
0.268813
0.265466
0.258883
0.248193
0.227927
0.215956
0.206352
0.197018
0.186746
0.174956
0.166195
0.160053
0.155868
0.153238
0.151964
0.151964
0.153238
0.155868
0.160053
0.166195
0.174956
0.186746
0.197018
0.206352
0.215956
0.227927
0.248193
0.258883
0.265466
0.268813
0.26725
0.254359
0.246817
0.237834
0.229703
0.221328
0.212983
0.204525
0.196091
0.187792
0.179658
0.171715
0.164
0.156551
0.149396
0.142559
0.136054
0.129889
0.124071
0.118603
0.113488
0.108726
0.104318
0.100263
0.0965583
0.0932024
0.0901928
0.0875265
0.0852009
0.0832132
0.0815611
0.0802421
0.0792546
0.0785971
0.0782686
0.0834499
0.083804
0.084513
0.0855778
0.0870003
0.0887827
0.0909277
0.0934386
0.0963186
0.0995713
0.1032
0.107209
0.111601
0.116379
0.121544
0.127098
0.13304
0.13937
0.146086
0.153185
0.160659
0.168497
0.176676
0.18516
0.193894
0.202824
0.211945
0.221306
0.230695
0.239563
0.248883
0.256301
0.268543
0.268776
0.262992
0.251577
0.229366
0.214093
0.199422
0.183247
0.169553
0.157622
0.146536
0.135736
0.125307
0.116605
0.109908
0.105092
0.101985
0.100463
0.100463
0.101985
0.105092
0.109908
0.116605
0.125307
0.135736
0.146536
0.157622
0.169553
0.183247
0.199422
0.214093
0.229366
0.251577
0.262992
0.268776
0.268543
0.256301
0.248883
0.239563
0.230695
0.221306
0.211945
0.202824
0.193894
0.18516
0.176677
0.168497
0.160659
0.153185
0.146087
0.13937
0.13304
0.127098
0.121544
0.116379
0.111601
0.10721
0.103201
0.0995714
0.0963186
0.0934386
0.0909277
0.0887827
0.0870002
0.0855778
0.0845129
0.083804
0.0834499
0.0883781
0.0887574
0.089517
0.0906581
0.0921828
0.0940939
0.0963947
0.0990889
0.102181
0.105675
0.109576
0.113889
0.118618
0.123766
0.129336
0.135332
0.141753
0.148601
0.155876
0.163577
0.171705
0.180253
0.189204
0.198513
0.208096
0.217835
0.22773
0.238236
0.249109
0.257533
0.270152
0.270137
0.263455
0.250386
0.225534
0.206299
0.186491
0.168855
0.152299
0.136217
0.121509
0.108158
0.0958696
0.0844491
0.0740193
0.0650924
0.0579573
0.0526796
0.0492177
0.0475073
0.0475073
0.0492177
0.0526796
0.0579573
0.0650923
0.0740192
0.084449
0.0958696
0.108158
0.121508
0.136217
0.152299
0.168855
0.186491
0.206299
0.225534
0.250386
0.263455
0.270137
0.270152
0.257533
0.249109
0.238236
0.22773
0.217835
0.208096
0.198514
0.189204
0.180253
0.171705
0.163577
0.155876
0.148601
0.141753
0.135332
0.129336
0.123766
0.118618
0.113889
0.109576
0.105675
0.102181
0.099089
0.0963947
0.0940939
0.0921828
0.0906581
0.089517
0.0887574
0.088378
0.0930333
0.0934375
0.0942468
0.0954628
0.0970881
0.0991257
0.10158
0.104455
0.107756
0.11149
0.115661
0.120276
0.12534
0.130858
0.136836
0.143275
0.150179
0.157548
0.165385
0.173695
0.182485
0.191765
0.201537
0.211764
0.222314
0.23287
0.243088
0.254989
0.270163
0.271503
0.265235
0.25182
0.225927
0.204941
0.182626
0.161743
0.141581
0.122659
0.104812
0.0879129
0.0721928
0.0577089
0.0444039
0.0322308
0.0212801
0.0118326
0.00418866
-0.00151275
-0.00526822
-0.00712655
-0.00712654
-0.00526825
-0.00151275
0.00418866
0.0118326
0.02128
0.0322308
0.0444039
0.0577089
0.0721928
0.0879129
0.104812
0.122659
0.141581
0.161743
0.182626
0.204941
0.225927
0.25182
0.265235
0.271503
0.270163
0.254989
0.243088
0.23287
0.222314
0.211764
0.201537
0.191766
0.182485
0.173695
0.165385
0.157548
0.150179
0.143275
0.136836
0.130859
0.12534
0.120276
0.115661
0.11149
0.107756
0.104455
0.10158
0.0991258
0.0970881
0.0954629
0.0942468
0.0934376
0.0930333
0.0973961
0.0978246
0.0986825
0.0999718
0.101695
0.103857
0.106461
0.109514
0.113021
0.11699
0.121428
0.126341
0.131739
0.137627
0.144012
0.150897
0.158285
0.166177
0.174576
0.183491
0.192939
0.202955
0.213587
0.224869
0.236708
0.248431
0.256955
0.268665
0.266235
0.254266
0.228644
0.207146
0.183658
0.160979
0.138421
0.116586
0.0955383
0.0754785
0.0564541
0.0384951
0.0216943
0.0061235
-0.00816138
-0.0211866
-0.0329475
-0.0432228
-0.0515202
-0.0576531
-0.0616561
-0.0636249
-0.0636249
-0.0616561
-0.0576531
-0.0515202
-0.0432228
-0.0329475
-0.0211867
-0.00816146
0.00612344
0.0216942
0.038495
0.0564541
0.0754785
0.0955382
0.116586
0.138421
0.160979
0.183658
0.207146
0.228644
0.254266
0.266235
0.268665
0.256955
0.248431
0.236708
0.224869
0.213587
0.202955
0.192939
0.183491
0.174576
0.166177
0.158285
0.150897
0.144012
0.137627
0.131739
0.126342
0.121428
0.11699
0.113021
0.109514
0.106461
0.103857
0.101695
0.0999718
0.0986826
0.0978247
0.0973962
0.101447
0.101899
0.102804
0.104165
0.105984
0.108266
0.111017
0.114243
0.117951
0.12215
0.126849
0.132058
0.137786
0.144041
0.150832
0.158164
0.166039
0.174456
0.183414
0.192919
0.202996
0.213705
0.225168
0.237603
0.251411
0.267387
0.267836
0.257666
0.233028
0.211851
0.188103
0.164618
0.140721
0.117018
0.0935993
0.0707307
0.0485813
0.0273217
0.00707558
-0.0120502
-0.0300163
-0.0467414
-0.0619908
-0.0758827
-0.0886835
-0.100287
-0.10943
-0.115965
-0.120123
-0.122138
-0.122138
-0.120123
-0.115965
-0.10943
-0.100287
-0.0886835
-0.0758827
-0.0619909
-0.0467415
-0.0300164
-0.0120503
0.00707548
0.0273216
0.0485812
0.0707306
0.0935993
0.117018
0.140721
0.164618
0.188103
0.211851
0.233028
0.257666
0.267835
0.267387
0.251411
0.237603
0.225168
0.213705
0.202996
0.192919
0.183414
0.174456
0.166039
0.158164
0.150832
0.144041
0.137786
0.132058
0.12685
0.12215
0.117951
0.114243
0.111017
0.108266
0.105984
0.104165
0.102804
0.101899
0.101447
0.105167
0.105642
0.106593
0.108022
0.109933
0.112332
0.115224
0.118618
0.122521
0.126944
0.131899
0.137395
0.143447
0.150066
0.157262
0.165042
0.173409
0.182356
0.191872
0.201948
0.212597
0.223885
0.235965
0.249159
0.264147
0.263059
0.25052
0.222314
0.19654
0.172171
0.147445
0.122632
0.0976986
0.0728649
0.0483028
0.0242141
0.000775596
-0.0218236
-0.0434135
-0.0637598
-0.0829861
-0.101113
-0.11722
-0.131722
-0.145679
-0.15988
-0.170027
-0.176735
-0.180816
-0.182753
-0.182753
-0.180817
-0.176735
-0.170027
-0.15988
-0.145679
-0.131722
-0.11722
-0.101113
-0.0829861
-0.0637599
-0.0434136
-0.0218237
0.000775501
0.024214
0.0483028
0.0728648
0.0976985
0.122632
0.147445
0.172171
0.19654
0.222314
0.25052
0.263059
0.264147
0.249159
0.235965
0.223885
0.212597
0.201948
0.191872
0.182356
0.173409
0.165042
0.157262
0.150066
0.143447
0.137396
0.131899
0.126944
0.122521
0.118618
0.115224
0.112332
0.109933
0.108022
0.106593
0.105642
0.105167
0.108538
0.109034
0.110029
0.111524
0.113523
0.116034
0.119062
0.122616
0.126707
0.131346
0.136546
0.142322
0.14869
0.155665
0.163262
0.171494
0.180363
0.189857
0.199944
0.210581
0.221744
0.23346
0.245844
0.25912
0.254147
0.231364
0.210046
0.184704
0.158803
0.132983
0.106992
0.0808661
0.054657
0.0285022
0.00257652
-0.0229276
-0.0478617
-0.0719875
-0.0951718
-0.11663
-0.13711
-0.157573
-0.174134
-0.188199
-0.202532
-0.22364
-0.234182
-0.240256
-0.243783
-0.245433
-0.245433
-0.243783
-0.240256
-0.234182
-0.22364
-0.202532
-0.188199
-0.174134
-0.157573
-0.13711
-0.11663
-0.0951719
-0.0719876
-0.0478618
-0.0229277
0.00257642
0.0285021
0.054657
0.0808661
0.106992
0.132983
0.158803
0.184704
0.210046
0.231364
0.254147
0.25912
0.245844
0.23346
0.221744
0.210582
0.199944
0.189857
0.180363
0.171494
0.163263
0.155665
0.14869
0.142322
0.136546
0.131346
0.126707
0.122616
0.119062
0.116034
0.113523
0.111524
0.110029
0.109034
0.108538
0.111541
0.112058
0.113093
0.114651
0.116735
0.119351
0.122508
0.126215
0.130484
0.135328
0.140763
0.146806
0.153477
0.160797
0.168789
0.177473
0.18686
0.196937
0.207646
0.218874
0.230525
0.242563
0.255029
0.248516
0.223138
0.198389
0.173764
0.1478
0.121113
0.0940746
0.0667646
0.0392536
0.0116118
-0.0160587
-0.04356
-0.0706471
-0.0973338
-0.123137
-0.148718
-0.170557
-0.191345
-0.218043
-0.233663
-0.244539
-0.252752
-0.259101
-0.263947
-0.267471
-0.269776
-0.270915
-0.270915
-0.269776
-0.267471
-0.263947
-0.259102
-0.252752
-0.244539
-0.233663
-0.218043
-0.191345
-0.170557
-0.148718
-0.123138
-0.0973338
-0.0706472
-0.0435601
-0.0160588
0.0116118
0.0392536
0.0667645
0.0940746
0.121113
0.1478
0.173764
0.198389
0.223138
0.248516
0.255029
0.242563
0.230525
0.218874
0.207646
0.196937
0.18686
0.177473
0.168789
0.160798
0.153477
0.146806
0.140763
0.135328
0.130484
0.126215
0.122508
0.119351
0.116735
0.114651
0.113093
0.112058
0.111541
0.114158
0.114694
0.115769
0.117385
0.119548
0.122264
0.125542
0.129393
0.133829
0.138865
0.14452
0.150814
0.157771
0.165418
0.173788
0.182917
0.19284
0.203565
0.215012
0.226933
0.239112
0.251438
0.244379
0.217956
0.191679
0.165451
0.138961
0.111744
0.0838762
0.0555214
0.0267999
-0.00218686
-0.0313842
-0.0607892
-0.0901316
-0.118808
-0.14775
-0.174591
-0.206104
-0.225649
-0.239801
-0.25072
-0.259079
-0.264692
-0.265991
-0.257229
-0.256199
-0.257076
-0.258104
-0.258709
-0.258709
-0.258104
-0.257076
-0.256199
-0.257229
-0.265991
-0.264692
-0.259079
-0.25072
-0.239801
-0.225649
-0.206104
-0.174591
-0.14775
-0.118808
-0.0901317
-0.0607893
-0.0313842
-0.00218693
0.0267999
0.0555213
0.0838761
0.111744
0.138961
0.165451
0.191679
0.217956
0.244379
0.251438
0.239112
0.226933
0.215012
0.203565
0.19284
0.182917
0.173788
0.165418
0.157771
0.150814
0.14452
0.138865
0.133829
0.129393
0.125542
0.122264
0.119548
0.117385
0.115769
0.114694
0.114158
0.116372
0.116927
0.118038
0.119709
0.121945
0.124754
0.128144
0.132128
0.136719
0.141933
0.14779
0.154314
0.161533
0.169479
0.178195
0.18774
0.198194
0.209653
0.222092
0.234927
0.247752
0.240881
0.214269
0.187425
0.160331
0.132911
0.105005
0.076438
0.0472032
0.0173903
-0.0128655
-0.0434047
-0.0741823
-0.105614
-0.137422
-0.16678
-0.200362
-0.221489
-0.236575
-0.247268
-0.252635
-0.247109
-0.2484
-0.250324
-0.25046
-0.247807
-0.246729
-0.246714
-0.247042
-0.247295
-0.247295
-0.247042
-0.246714
-0.246729
-0.247808
-0.25046
-0.250324
-0.2484
-0.247109
-0.252635
-0.247268
-0.236575
-0.221489
-0.200362
-0.16678
-0.137423
-0.105614
-0.0741824
-0.0434048
-0.0128656
0.0173902
0.0472031
0.0764379
0.105005
0.132911
0.160331
0.187425
0.214269
0.240881
0.247752
0.234927
0.222092
0.209653
0.198194
0.18774
0.178196
0.169479
0.161533
0.154314
0.14779
0.141933
0.136719
0.132128
0.128144
0.124754
0.121945
0.119709
0.118038
0.116927
0.116372
0.118169
0.11874
0.119884
0.121605
0.123909
0.126803
0.130296
0.134401
0.139133
0.144508
0.150547
0.157277
0.164728
0.172935
0.181945
0.191827
0.202722
0.214948
0.228965
0.24313
0.237269
0.211239
0.184569
0.157301
0.129446
0.100972
0.071806
0.0418721
0.0111594
-0.0202692
-0.0522415
-0.0844011
-0.116366
-0.150126
-0.187251
-0.210634
-0.226543
-0.235554
-0.232581
-0.235363
-0.237516
-0.236857
-0.237267
-0.237924
-0.237898
-0.236995
-0.236377
-0.236193
-0.23624
-0.236317
-0.236317
-0.23624
-0.236193
-0.236377
-0.236995
-0.237898
-0.237924
-0.237268
-0.236857
-0.237516
-0.235363
-0.232581
-0.235554
-0.226543
-0.210634
-0.187251
-0.150126
-0.116366
-0.0844011
-0.0522416
-0.0202692
0.0111594
0.0418721
0.071806
0.100972
0.129446
0.157301
0.184569
0.211239
0.237269
0.24313
0.228965
0.214948
0.202722
0.191827
0.181945
0.172935
0.164728
0.157278
0.150548
0.144508
0.139133
0.134402
0.130296
0.126803
0.123909
0.121606
0.119884
0.11874
0.118169
0.119531
0.120118
0.121292
0.123059
0.125424
0.128395
0.131981
0.136196
0.141053
0.14657
0.15277
0.15968
0.16733
0.175756
0.184994
0.195078
0.2061
0.21864
0.235884
0.23254
0.208128
0.182412
0.155623
0.127898
0.0992951
0.06982
0.0394454
0.00813379
-0.0241428
-0.0573828
-0.0914522
-0.125638
-0.156824
-0.191367
-0.211921
-0.223082
-0.220752
-0.222745
-0.222995
-0.224251
-0.22538
-0.225708
-0.226062
-0.226381
-0.226393
-0.226073
-0.22577
-0.22562
-0.225587
-0.225597
-0.225597
-0.225587
-0.22562
-0.22577
-0.226073
-0.226393
-0.226381
-0.226062
-0.225708
-0.22538
-0.224251
-0.222995
-0.222745
-0.220752
-0.223082
-0.211921
-0.191367
-0.156824
-0.125638
-0.0914522
-0.0573828
-0.0241429
0.00813378
0.0394454
0.06982
0.0992951
0.127898
0.155623
0.182412
0.208129
0.23254
0.235884
0.21864
0.2061
0.195078
0.184994
0.175756
0.16733
0.15968
0.15277
0.14657
0.141053
0.136196
0.131982
0.128395
0.125424
0.123059
0.121292
0.120118
0.119531
0.120446
0.121046
0.122248
0.124056
0.126476
0.129515
0.133184
0.137495
0.142463
0.148104
0.154441
0.161501
0.169319
0.177934
0.187371
0.197569
0.208145
0.217815
0.224569
0.204188
0.180468
0.154814
0.12775
0.0994878
0.0701096
0.0396381
0.00807004
-0.0246147
-0.0584811
-0.0936912
-0.130596
-0.169949
-0.194023
-0.207699
-0.207104
-0.21015
-0.210788
-0.211834
-0.21256
-0.213429
-0.214209
-0.214698
-0.215063
-0.215315
-0.215393
-0.215309
-0.215186
-0.215103
-0.215069
-0.215061
-0.215061
-0.215069
-0.215103
-0.215186
-0.215309
-0.215393
-0.215315
-0.215063
-0.214698
-0.214209
-0.213429
-0.21256
-0.211834
-0.210789
-0.21015
-0.207105
-0.207699
-0.194023
-0.169949
-0.130596
-0.0936912
-0.0584811
-0.0246147
0.00807006
0.0396381
0.0701097
0.0994878
0.12775
0.154814
0.180468
0.204188
0.224569
0.217815
0.208145
0.197569
0.187371
0.177934
0.169319
0.161501
0.154441
0.148104
0.142463
0.137496
0.133184
0.129515
0.126476
0.124056
0.122248
0.121046
0.120446
0.1209
0.121512
0.122738
0.124581
0.127049
0.13015
0.133892
0.138287
0.14335
0.149096
0.155546
0.162726
0.170677
0.179459
0.189159
0.19986
0.211278
0.220094
0.201557
0.17935
0.154897
0.128761
0.10119
0.0722885
0.0420901
0.0106023
-0.0221626
-0.0561801
-0.0914995
-0.128355
-0.167367
-0.190624
-0.202722
-0.199419
-0.198787
-0.199768
-0.200566
-0.201395
-0.202135
-0.202855
-0.20349
-0.203976
-0.20434
-0.204591
-0.204722
-0.204751
-0.204732
-0.204707
-0.204694
-0.204689
-0.204689
-0.204694
-0.204707
-0.204732
-0.204751
-0.204722
-0.204591
-0.20434
-0.203976
-0.20349
-0.202855
-0.202135
-0.201396
-0.200566
-0.199768
-0.198787
-0.199419
-0.202723
-0.190624
-0.167367
-0.128355
-0.0914995
-0.0561801
-0.0221626
0.0106023
0.0420901
0.0722885
0.101191
0.128762
0.154897
0.17935
0.201557
0.220094
0.211278
0.19986
0.189159
0.179459
0.170678
0.162726
0.155546
0.149096
0.14335
0.138287
0.133892
0.13015
0.12705
0.124581
0.122738
0.121512
0.1209
0.120881
0.121503
0.122749
0.124624
0.127134
0.130286
0.134092
0.138561
0.143705
0.149539
0.156077
0.163342
0.17137
0.180235
0.19012
0.201613
0.217195
0.210894
0.182388
0.156914
0.131144
0.104263
0.0760592
0.0464605
0.0154126
-0.0171277
-0.0511385
-0.0864646
-0.123029
-0.160935
-0.180976
-0.183558
-0.187936
-0.188601
-0.188992
-0.189711
-0.190456
-0.191193
-0.191881
-0.192517
-0.193077
-0.193533
-0.193889
-0.194148
-0.194315
-0.194406
-0.194448
-0.194466
-0.194475
-0.194479
-0.194479
-0.194475
-0.194466
-0.194448
-0.194406
-0.194315
-0.194148
-0.193889
-0.193533
-0.193077
-0.192518
-0.191881
-0.191194
-0.190456
-0.189711
-0.188992
-0.188601
-0.187936
-0.183558
-0.180976
-0.160935
-0.123029
-0.0864646
-0.0511385
-0.0171277
0.0154126
0.0464605
0.0760592
0.104263
0.131144
0.156914
0.182388
0.210894
0.217195
0.201613
0.19012
0.180235
0.17137
0.163342
0.156077
0.149539
0.143705
0.138561
0.134092
0.130286
0.127134
0.124624
0.122749
0.121503
0.120881
0.120378
0.121008
0.122271
0.124172
0.126717
0.129914
0.133774
0.138306
0.143522
0.14943
0.156039
0.163355
0.171389
0.180158
0.189647
0.199455
0.206162
0.185055
0.160346
0.134912
0.108625
0.081186
0.052402
0.0221383
-0.00973933
-0.0433784
-0.0788158
-0.115553
-0.153287
-0.172458
-0.173137
-0.174815
-0.176987
-0.178186
-0.179
-0.179764
-0.180493
-0.181184
-0.181824
-0.182405
-0.182916
-0.183345
-0.183689
-0.183953
-0.184142
-0.184268
-0.184347
-0.184394
-0.184421
-0.184434
-0.184434
-0.184421
-0.184394
-0.184347
-0.184268
-0.184142
-0.183953
-0.18369
-0.183345
-0.182916
-0.182405
-0.181824
-0.181184
-0.180493
-0.179764
-0.179
-0.178186
-0.176987
-0.174815
-0.173137
-0.172458
-0.153287
-0.115553
-0.0788158
-0.0433783
-0.0097393
0.0221383
0.052402
0.081186
0.108625
0.134912
0.160346
0.185055
0.206162
0.199455
0.189647
0.180158
0.17139
0.163355
0.156039
0.14943
0.143522
0.138306
0.133774
0.129914
0.126717
0.124172
0.122272
0.121008
0.120378
0.119382
0.120019
0.121295
0.123215
0.125787
0.129021
0.132927
0.137515
0.142796
0.148774
0.155448
0.162809
0.170838
0.179528
0.189025
0.200571
0.184098
0.162981
0.139173
0.113885
0.0873623
0.0595373
0.030286
-0.000531376
-0.033115
-0.0678407
-0.10523
-0.143708
-0.163177
-0.163559
-0.164411
-0.165692
-0.167133
-0.168278
-0.169189
-0.169982
-0.170703
-0.171363
-0.171966
-0.172507
-0.172982
-0.173387
-0.17372
-0.173984
-0.174185
-0.17433
-0.174431
-0.174497
-0.174537
-0.174556
-0.174556
-0.174537
-0.174497
-0.174431
-0.17433
-0.174185
-0.173984
-0.17372
-0.173387
-0.172982
-0.172507
-0.171966
-0.171363
-0.170703
-0.169982
-0.169189
-0.168278
-0.167133
-0.165692
-0.164411
-0.163559
-0.163177
-0.143708
-0.10523
-0.0678407
-0.0331149
-0.000531365
0.030286
0.0595373
0.0873623
0.113885
0.139173
0.162981
0.184098
0.200571
0.189025
0.179528
0.170838
0.162809
0.155448
0.148774
0.142796
0.137515
0.132927
0.129021
0.125787
0.123215
0.121295
0.120019
0.119382
0.117885
0.118525
0.11981
0.121743
0.124336
0.127597
0.13154
0.136177
0.14152
0.147571
0.154325
0.161751
0.169784
0.178257
0.186522
0.190861
0.166839
0.143742
0.119606
0.0942034
0.0674895
0.0393823
0.00978122
-0.0214127
-0.0543507
-0.0896678
-0.130608
-0.151937
-0.153231
-0.154294
-0.155364
-0.156521
-0.157689
-0.158726
-0.159618
-0.160401
-0.161101
-0.161734
-0.162304
-0.162812
-0.163259
-0.163642
-0.163963
-0.164224
-0.164428
-0.164584
-0.164697
-0.164775
-0.164823
-0.164847
-0.164847
-0.164823
-0.164775
-0.164697
-0.164584
-0.164428
-0.164224
-0.163963
-0.163642
-0.163259
-0.162812
-0.162304
-0.161734
-0.161101
-0.160401
-0.159618
-0.158726
-0.157689
-0.156521
-0.155364
-0.154294
-0.153231
-0.151937
-0.130608
-0.0896678
-0.0543507
-0.0214127
0.00978122
0.0393823
0.0674894
0.0942034
0.119606
0.143742
0.166839
0.190862
0.186522
0.178257
0.169784
0.161751