/*--------------------------------*- C++ -*----------------------------------*\
  =========                 |
  \\      /  F ield         | OpenFOAM: The Open Source CFD Toolbox
   \\    /   O peration     | Website:  https://openfoam.org
    \\  /    A nd           | Version:  7
     \\/     M anipulation  |
\*---------------------------------------------------------------------------*/
FoamFile
{
    version     2.0;
    format      ascii;
    class       volScalarField;
    location    "0.034";
    object      gradTy;
}
// * * * * * * * * * * * * * * * * * * * * * * * * * * * * * * * * * * * * * //

dimensions      [0 -1 0 1 0 0 0];

internalField   nonuniform List<scalar> 
10000
(
0.00101395
0.00101403
0.00101419
0.00101444
0.00101473
0.00101508
0.00101543
0.00101578
0.00101611
0.00101634
0.00101648
0.00101647
0.00101627
0.00101584
0.00101513
0.0010141
0.0010127
0.0010109
0.00100865
0.00100593
0.00100266
0.000998885
0.000994523
0.000989578
0.000984041
0.00097791
0.00097125
0.000964029
0.000956311
0.000948126
0.000939571
0.000930677
0.000921519
0.000912149
0.000902683
0.000893196
0.000883731
0.000874382
0.000865234
0.000856446
0.000848071
0.000840246
0.000833089
0.000826704
0.000821103
0.00081637
0.000812463
0.000809488
0.000807466
0.000806439
0.000806439
0.000807466
0.000809499
0.000812474
0.00081636
0.000821124
0.000826715
0.00083311
0.000840257
0.00084806
0.000856435
0.000865255
0.000874382
0.00088372
0.000893186
0.000902694
0.000912159
0.000921508
0.000930656
0.000939571
0.000948137
0.000956311
0.000964029
0.00097125
0.000977921
0.000984041
0.000989557
0.000994512
0.000998874
0.00100268
0.00100593
0.00100866
0.00101089
0.0010127
0.00101408
0.00101513
0.00101584
0.00101626
0.00101645
0.00101648
0.00101635
0.00101611
0.00101579
0.00101542
0.00101508
0.00101475
0.00101444
0.00101419
0.00101404
0.00101395
0.00303763
0.00303788
0.00303839
0.0030391
0.00303998
0.00304099
0.00304202
0.00304305
0.00304395
0.00304463
0.00304497
0.00304488
0.00304422
0.00304284
0.00304063
0.00303744
0.00303317
0.00302769
0.00302085
0.00301252
0.00300265
0.00299114
0.00297789
0.00296289
0.00294611
0.0029276
0.00290736
0.00288549
0.0028621
0.00283736
0.00281142
0.00278449
0.00275676
0.00272848
0.00269985
0.0026711
0.00264245
0.00261417
0.00258653
0.00255986
0.00253452
0.00251085
0.00248922
0.00246987
0.00245299
0.00243862
0.00242686
0.00241782
0.00241168
0.00240856
0.00240856
0.00241167
0.00241781
0.00242687
0.00243863
0.00245298
0.00246987
0.00248921
0.00251085
0.00253452
0.00255987
0.00258654
0.00261418
0.00264245
0.00267111
0.00269985
0.00272848
0.00275676
0.00278449
0.00281143
0.00283736
0.00286209
0.00288547
0.00290733
0.00292758
0.00294611
0.00296288
0.00297787
0.00299112
0.00300265
0.0030125
0.00302084
0.00302769
0.00303318
0.00303746
0.00304063
0.00304283
0.00304418
0.00304487
0.00304497
0.00304463
0.00304394
0.00304303
0.00304201
0.00304096
0.00303997
0.00303908
0.00303839
0.00303788
0.00303763
0.00504871
0.00504913
0.00504993
0.00505107
0.00505248
0.00505407
0.00505573
0.00505729
0.00505867
0.00505966
0.00506007
0.0050597
0.00505839
0.00505588
0.00505194
0.00504638
0.00503895
0.00502947
0.0050177
0.00500344
0.00498655
0.00496687
0.00494433
0.00491879
0.00489027
0.00485874
0.00482436
0.00478721
0.0047475
0.00470549
0.00466148
0.00461577
0.00456878
0.00452084
0.00447231
0.00442359
0.00437506
0.00432712
0.00428025
0.00423498
0.00419192
0.00415173
0.00411503
0.00408232
0.00405379
0.00402953
0.00400962
0.00399426
0.00398373
0.0039784
0.00397838
0.00398372
0.00399424
0.0040096
0.00402952
0.00405378
0.00408231
0.00411503
0.00415172
0.00419192
0.00423498
0.00428024
0.00432712
0.00437506
0.00442359
0.00447231
0.00452084
0.00456876
0.00461577
0.00466146
0.00470546
0.00474748
0.0047872
0.00482434
0.00485874
0.00489024
0.00491876
0.00494429
0.00496685
0.0049865
0.00500342
0.00501765
0.00502944
0.00503894
0.00504636
0.00505191
0.00505583
0.00505835
0.00505969
0.00506006
0.00505963
0.00505866
0.00505728
0.00505571
0.00505404
0.00505246
0.00505105
0.0050499
0.00504911
0.0050487
0.00703888
0.00703942
0.00704047
0.00704197
0.0070438
0.00704586
0.00704798
0.00704995
0.0070516
0.00705267
0.0070529
0.00705202
0.00704971
0.0070457
0.00703968
0.00703133
0.00702029
0.0070063
0.00698905
0.0069683
0.00694379
0.00691528
0.00688264
0.00684575
0.00680461
0.00675919
0.00670966
0.00665615
0.00659901
0.00653856
0.00647526
0.0064096
0.00634212
0.0062733
0.0062037
0.00613383
0.00606423
0.00599545
0.00592814
0.00586299
0.00580094
0.00574303
0.0056903
0.00564352
0.00560288
0.00556828
0.0055397
0.00551748
0.00550217
0.00549434
0.00549434
0.00550218
0.00551748
0.00553969
0.00556827
0.00560286
0.00564349
0.00569029
0.00574303
0.00580096
0.00586301
0.00592815
0.00599547
0.00606425
0.00613384
0.0062037
0.00627328
0.0063421
0.00640959
0.00647526
0.00653855
0.00659899
0.00665613
0.00670963
0.00675917
0.00680458
0.00684572
0.00688261
0.00691523
0.00694373
0.00696828
0.00698904
0.00700628
0.00702026
0.00703128
0.00703966
0.00704568
0.00704971
0.00705199
0.00705288
0.00705266
0.0070516
0.00704995
0.00704796
0.00704583
0.00704378
0.00704196
0.00704046
0.0070394
0.00703885
0.00899985
0.0090005
0.00900174
0.00900348
0.00900563
0.00900799
0.00901038
0.00901254
0.00901417
0.009015
0.00901471
0.0090129
0.00900921
0.00900324
0.00899459
0.00898283
0.00896756
0.00894839
0.00892494
0.00889685
0.0088638
0.0088255
0.00878176
0.00873244
0.00867745
0.00861684
0.00855072
0.00847941
0.00840326
0.00832273
0.00823846
0.00815111
0.0080614
0.00797004
0.0078777
0.00778506
0.00769277
0.00760151
0.00751202
0.00742523
0.0073423
0.00726481
0.00719457
0.00713279
0.0070796
0.00703419
0.00699622
0.0069663
0.00694543
0.00693468
0.00693469
0.00694543
0.00696628
0.00699622
0.00703416
0.00707959
0.00713279
0.00719457
0.00726482
0.0073423
0.00742524
0.00751203
0.00760152
0.0076928
0.00778509
0.00787771
0.00797004
0.0080614
0.0081511
0.00823845
0.00832271
0.00840323
0.0084794
0.00855072
0.00861682
0.00867743
0.00873242
0.00878175
0.00882549
0.00886378
0.00889683
0.00892493
0.00894838
0.00896755
0.00898281
0.00899457
0.00900323
0.0090092
0.0090129
0.00901471
0.009015
0.00901416
0.00901253
0.00901034
0.00900798
0.00900562
0.00900348
0.00900173
0.00900049
0.00899984
0.0109235
0.0109242
0.0109256
0.0109275
0.0109298
0.0109322
0.0109346
0.0109366
0.010938
0.0109382
0.0109369
0.0109337
0.010928
0.0109195
0.0109075
0.0108917
0.0108714
0.0108461
0.0108155
0.0107791
0.0107364
0.0106871
0.0106309
0.0105677
0.0104973
0.0104198
0.0103354
0.0102443
0.0101471
0.0100444
0.00993691
0.00982561
0.00971144
0.00959535
0.00947818
0.00936071
0.00924366
0.00912776
0.00901398
0.00890324
0.00879675
0.00869696
0.00860701
0.00852927
0.00846349
0.00840693
0.00835854
0.00831946
0.00829179
0.00827738
0.00827735
0.00829175
0.00831945
0.00835853
0.00840691
0.00846349
0.00852927
0.00860702
0.00869695
0.00879675
0.00890325
0.00901401
0.0091278
0.00924367
0.00936071
0.00947818
0.00959536
0.00971147
0.00982561
0.00993689
0.0100443
0.0101471
0.0102443
0.0103354
0.0104198
0.0104973
0.0105677
0.0106309
0.010687
0.0107363
0.010779
0.0108155
0.0108461
0.0108713
0.0108916
0.0109075
0.0109195
0.010928
0.0109337
0.0109369
0.0109382
0.0109379
0.0109366
0.0109346
0.0109322
0.0109297
0.0109275
0.0109256
0.0109242
0.0109235
0.012802
0.0128027
0.0128041
0.012806
0.0128082
0.0128105
0.0128126
0.0128141
0.0128147
0.0128138
0.012811
0.0128058
0.0127975
0.0127857
0.0127696
0.0127487
0.0127224
0.0126901
0.0126512
0.0126051
0.0125514
0.0124896
0.0124194
0.0123406
0.012253
0.0121566
0.0120516
0.0119385
0.0118177
0.01169
0.0115566
0.0114186
0.0112772
0.0111337
0.0109891
0.0108443
0.0107
0.010557
0.0104165
0.0102791
0.0101454
0.0100189
0.00990581
0.00981128
0.00973462
0.00966709
0.00960655
0.00955581
0.0095191
0.00949985
0.00949985
0.00951909
0.0095558
0.00960653
0.00966708
0.00973461
0.00981128
0.00990581
0.0100189
0.0101454
0.0102791
0.0104165
0.010557
0.0107
0.0108443
0.0109891
0.0111337
0.0112772
0.0114186
0.0115566
0.01169
0.0118176
0.0119384
0.0120516
0.0121566
0.012253
0.0123406
0.0124194
0.0124896
0.0125514
0.0126051
0.0126511
0.0126901
0.0127224
0.0127487
0.0127696
0.0127857
0.0127975
0.0128058
0.012811
0.0128138
0.0128147
0.0128141
0.0128126
0.0128105
0.0128082
0.0128059
0.012804
0.0128027
0.012802
0.0146275
0.0146281
0.0146294
0.0146311
0.014633
0.0146349
0.0146364
0.014637
0.0146363
0.0146338
0.0146289
0.014621
0.0146093
0.0145933
0.0145722
0.0145453
0.0145118
0.0144711
0.0144225
0.0143654
0.0142991
0.0142232
0.0141371
0.0140407
0.0139336
0.013816
0.0136879
0.0135498
0.0134025
0.0132467
0.013084
0.0129158
0.0127437
0.0125695
0.0123945
0.0122196
0.0120454
0.0118722
0.0117023
0.0115363
0.0113702
0.0112095
0.0110669
0.0109549
0.0108748
0.0107974
0.0107211
0.0106541
0.0106047
0.0105786
0.0105786
0.0106047
0.0106541
0.0107211
0.0107974
0.0108748
0.0109549
0.0110669
0.0112095
0.0113702
0.0115363
0.0117023
0.0118722
0.0120454
0.0122196
0.0123945
0.0125695
0.0127437
0.0129158
0.013084
0.0132467
0.0134024
0.0135498
0.0136879
0.013816
0.0139336
0.0140407
0.0141371
0.0142232
0.0142991
0.0143654
0.0144225
0.0144711
0.0145118
0.0145453
0.0145722
0.0145933
0.0146093
0.014621
0.0146289
0.0146338
0.0146363
0.014637
0.0146364
0.0146349
0.014633
0.0146311
0.0146294
0.0146281
0.0146275
0.0163925
0.016393
0.016394
0.0163954
0.0163968
0.0163979
0.0163983
0.0163976
0.0163951
0.0163904
0.0163827
0.0163712
0.0163553
0.0163341
0.0163069
0.0162728
0.0162309
0.0161805
0.0161207
0.0160509
0.0159702
0.0158782
0.0157741
0.0156578
0.0155288
0.0153872
0.0152331
0.0150669
0.0148894
0.0147018
0.0145057
0.0143031
0.0140963
0.0138875
0.0136787
0.0134707
0.0132638
0.013056
0.0128541
0.0126614
0.0124557
0.0122471
0.0120607
0.0119285
0.0118725
0.0117852
0.0116842
0.0115923
0.0115244
0.0114886
0.0114886
0.0115244
0.0115923
0.0116842
0.0117852
0.0118725
0.0119285
0.0120607
0.0122471
0.0124557
0.0126614
0.0128541
0.013056
0.0132638
0.0134707
0.0136787
0.0138875
0.0140963
0.0143031
0.0145057
0.0147018
0.0148894
0.0150669
0.0152331
0.0153872
0.0155288
0.0156578
0.0157741
0.0158782
0.0159702
0.0160509
0.0161207
0.0161805
0.0162309
0.0162728
0.0163069
0.0163342
0.0163553
0.0163712
0.0163827
0.0163904
0.0163951
0.0163976
0.0163983
0.0163979
0.0163968
0.0163954
0.016394
0.016393
0.0163924
0.0180897
0.0180901
0.0180908
0.0180915
0.0180921
0.0180921
0.018091
0.0180884
0.0180836
0.0180759
0.0180646
0.0180488
0.0180277
0.0180003
0.0179658
0.0179231
0.0178714
0.0178097
0.017737
0.0176526
0.0175556
0.0174453
0.017321
0.0171822
0.0170286
0.01686
0.0166766
0.0164787
0.0162671
0.0160432
0.0158089
0.0155668
0.0153201
0.015072
0.0148258
0.0145816
0.0143413
0.0140896
0.01385
0.0136504
0.0133936
0.0131107
0.0128475
0.0126709
0.0127434
0.0126272
0.0124778
0.0123459
0.0122514
0.0122025
0.0122025
0.0122514
0.0123459
0.0124777
0.0126272
0.0127434
0.0126709
0.0128475
0.0131107
0.0133936
0.0136504
0.01385
0.0140896
0.0143413
0.0145816
0.0148258
0.015072
0.0153201
0.0155668
0.0158088
0.0160432
0.0162671
0.0164787
0.0166765
0.01686
0.0170286
0.0171822
0.017321
0.0174453
0.0175556
0.0176526
0.017737
0.0178097
0.0178714
0.0179231
0.0179658
0.0180003
0.0180277
0.0180488
0.0180646
0.0180759
0.0180836
0.0180884
0.018091
0.0180921
0.0180921
0.0180915
0.0180907
0.0180901
0.0180897
0.0197123
0.0197125
0.0197126
0.0197125
0.0197119
0.0197104
0.0197074
0.0197024
0.0196946
0.0196832
0.0196674
0.0196464
0.019619
0.0195842
0.0195411
0.0194885
0.0194254
0.0193506
0.0192633
0.0191623
0.0190468
0.0189159
0.0187688
0.0186048
0.0184236
0.0182247
0.0180084
0.0177749
0.0175248
0.0172595
0.0169813
0.0166934
0.0164008
0.0161068
0.01582
0.0155346
0.0152729
0.0149512
0.0146433
0.0145307
0.01419
0.0137867
0.0133794
0.0129944
0.0126461
0.012344
0.012095
0.0119042
0.011775
0.0117099
0.0117099
0.011775
0.0119042
0.012095
0.012344
0.0126461
0.0129944
0.0133794
0.0137867
0.01419
0.0145307
0.0146433
0.0149511
0.0152729
0.0155346
0.01582
0.0161068
0.0164008
0.0166934
0.0169813
0.0172595
0.0175248
0.0177749
0.0180084
0.0182247
0.0184235
0.0186048
0.0187688
0.0189159
0.0190468
0.0191624
0.0192633
0.0193507
0.0194254
0.0194885
0.0195411
0.0195842
0.019619
0.0196464
0.0196675
0.0196832
0.0196946
0.0197024
0.0197074
0.0197104
0.019712
0.0197125
0.0197126
0.0197125
0.0197124
0.0212537
0.0212535
0.0212529
0.0212518
0.0212497
0.0212463
0.0212409
0.0212328
0.0212213
0.0212055
0.0211844
0.021157
0.0211222
0.0210788
0.0210257
0.0209616
0.0208854
0.0207959
0.0206918
0.0205721
0.0204358
0.0202817
0.0201091
0.0199171
0.0197049
0.0194724
0.0192194
0.0189462
0.018653
0.0183405
0.0180118
0.0176701
0.0173245
0.016973
0.0166476
0.016295
0.0160917
0.0156237
0.0150639
0.0144749
0.0138843
0.0133031
0.0127279
0.0121222
0.0113459
0.0108532
0.0105015
0.0102494
0.0100844
0.0100024
0.0100024
0.0100844
0.0102494
0.0105015
0.0108532
0.0113459
0.0121222
0.0127279
0.0133031
0.0138843
0.0144749
0.0150639
0.0156237
0.0160917
0.016295
0.0166476
0.0169729
0.0173245
0.0176701
0.0180118
0.0183404
0.018653
0.0189462
0.0192194
0.0194724
0.0197049
0.0199171
0.0201091
0.0202817
0.0204358
0.0205721
0.0206918
0.0207959
0.0208855
0.0209617
0.0210257
0.0210788
0.0211222
0.021157
0.0211844
0.0212055
0.0212213
0.0212328
0.0212409
0.0212463
0.0212498
0.0212518
0.021253
0.0212535
0.0212537
0.0227076
0.0227069
0.0227055
0.0227031
0.0226992
0.0226934
0.022685
0.0226733
0.0226574
0.0226362
0.0226089
0.0225741
0.0225307
0.0224774
0.0224128
0.0223357
0.0222446
0.0221383
0.0220153
0.0218746
0.0217149
0.0215351
0.0213341
0.0211109
0.0208646
0.0205945
0.0203009
0.0199842
0.0196434
0.0192769
0.0188913
0.0184829
0.0180832
0.0176382
0.0173237
0.0167237
0.0160059
0.0152186
0.0143461
0.0132571
0.0124091
0.0116584
0.0109565
0.0102772
0.00961034
0.00907566
0.00866643
0.00836825
0.00817266
0.00807565
0.00807565
0.00817266
0.00836826
0.00866644
0.00907566
0.00961033
0.0102772
0.0109565
0.0116583
0.0124091
0.0132571
0.0143461
0.0152186
0.0160059
0.0167237
0.0173237
0.0176381
0.0180832
0.0184829
0.0188913
0.0192769
0.0196433
0.0199842
0.0203009
0.0205945
0.0208646
0.0211109
0.0213342
0.0215351
0.0217149
0.0218746
0.0220153
0.0221383
0.0222446
0.0223357
0.0224129
0.0224774
0.0225307
0.0225741
0.0226089
0.0226363
0.0226574
0.0226733
0.0226851
0.0226935
0.0226993
0.0227031
0.0227056
0.022707
0.0227076
0.0240681
0.024067
0.0240645
0.0240605
0.0240545
0.0240459
0.024034
0.024018
0.0239969
0.0239696
0.023935
0.0238917
0.0238385
0.0237738
0.0236963
0.0236044
0.0234965
0.0233713
0.0232272
0.023063
0.0228773
0.022669
0.0224367
0.0221793
0.0218952
0.0215834
0.0212446
0.0208815
0.0204905
0.0200599
0.0196174
0.0191074
0.0187036
0.0179864
0.0171126
0.0160986
0.0148216
0.0137367
0.0126912
0.0116384
0.010686
0.0098214
0.00902636
0.00829115
0.0076224
0.0070588
0.00661094
0.00627827
0.00605821
0.0059487
0.00594871
0.00605822
0.00627827
0.00661092
0.00705878
0.00762238
0.00829114
0.00902635
0.0098214
0.010686
0.0116384
0.0126912
0.0137367
0.0148216
0.0160986
0.0171126
0.0179864
0.0187036
0.0191073
0.0196175
0.0200599
0.0204905
0.0208815
0.0212446
0.0215834
0.0218952
0.0221793
0.0224367
0.022669
0.0228773
0.023063
0.0232273
0.0233713
0.0234966
0.0236044
0.0236963
0.0237739
0.0238385
0.0238917
0.023935
0.0239696
0.0239969
0.024018
0.024034
0.0240459
0.0240545
0.0240606
0.0240646
0.024067
0.0240682
0.0253299
0.0253282
0.0253246
0.0253187
0.0253101
0.0252983
0.0252823
0.0252613
0.0252343
0.0251999
0.025157
0.0251042
0.0250399
0.0249625
0.0248705
0.024762
0.0246354
0.0244891
0.0243214
0.024131
0.0239165
0.0236767
0.0234103
0.0231157
0.0227904
0.0224319
0.022041
0.0216308
0.0211969
0.0206706
0.0202233
0.0194347
0.0184613
0.0173168
0.0158729
0.0145769
0.0132811
0.0120629
0.010902
0.00978974
0.00875543
0.00780445
0.00693432
0.00614466
0.00544293
0.0048462
0.00436523
0.0040043
0.00376417
0.00364436
0.00364437
0.00376418
0.00400431
0.00436523
0.00484619
0.00544293
0.00614465
0.00693432
0.00780445
0.00875543
0.00978973
0.010902
0.0120629
0.0132811
0.0145769
0.0158729
0.0173168
0.0184613
0.0194347
0.0202232
0.0206706
0.0211969
0.0216308
0.022041
0.022432
0.0227904
0.0231157
0.0234103
0.0236767
0.0239165
0.0241311
0.0243215
0.0244891
0.0246354
0.024762
0.0248705
0.0249626
0.0250399
0.0251042
0.0251571
0.0252
0.0252343
0.0252613
0.0252823
0.0252983
0.0253102
0.0253187
0.0253246
0.0253282
0.0253299
0.026488
0.0264856
0.0264806
0.0264726
0.0264612
0.0264456
0.026425
0.0263984
0.0263646
0.0263224
0.0262702
0.0262066
0.0261299
0.0260384
0.0259302
0.0258034
0.0256561
0.0254864
0.0252927
0.0250732
0.0248267
0.0245523
0.0242488
0.0239147
0.0235463
0.0231356
0.0226749
0.0222171
0.0218041
0.0210076
0.0199898
0.0187688
0.0172182
0.0157852
0.0143213
0.0129053
0.0115277
0.0102097
0.0089544
0.00776544
0.00665496
0.00563014
0.00469455
0.00385153
0.00310754
0.00247356
0.00196052
0.00157453
0.00131742
0.00118911
0.00118911
0.00131742
0.00157453
0.00196053
0.00247357
0.00310755
0.00385152
0.00469453
0.00563013
0.00665496
0.00776543
0.00895439
0.0102097
0.0115277
0.0129053
0.0143213
0.0157852
0.0172182
0.0187688
0.0199898
0.0210076
0.0218041
0.0222171
0.0226749
0.0231356
0.0235463
0.0239147
0.0242488
0.0245523
0.0248268
0.0250732
0.0252927
0.0254865
0.0256561
0.0258034
0.0259302
0.0260385
0.02613
0.0262067
0.0262703
0.0263224
0.0263646
0.0263984
0.026425
0.0264456
0.0264612
0.0264726
0.0264806
0.0264856
0.026488
0.0275379
0.0275347
0.0275281
0.0275178
0.0275031
0.0274833
0.0274576
0.0274247
0.0273834
0.0273324
0.02727
0.0271945
0.0271042
0.0269971
0.0268711
0.0267242
0.0265542
0.0263589
0.0261363
0.0258847
0.0256027
0.0252898
0.024946
0.0245712
0.0241624
0.0237026
0.0231145
0.0225618
0.021611
0.0203836
0.0187832
0.0172672
0.0156904
0.014133
0.0125867
0.0110757
0.00961018
0.00820323
0.00686343
0.00559833
0.00441642
0.00332509
0.00233073
0.00143703
0.000648012
-2.70839e-05
-0.000572594
-0.000981298
-0.00125241
-0.00138739
-0.00138738
-0.00125241
-0.000981309
-0.000572594
-2.70839e-05
0.000648023
0.00143702
0.00233072
0.00332508
0.00441639
0.00559829
0.00686342
0.00820322
0.00961016
0.0110757
0.0125867
0.014133
0.0156904
0.0172672
0.0187832
0.0203836
0.021611
0.0225618
0.0231145
0.0237026
0.0241624
0.0245711
0.024946
0.0252898
0.0256027
0.0258847
0.0261363
0.0263589
0.0265542
0.0267242
0.0268712
0.0269971
0.0271042
0.0271946
0.02727
0.0273324
0.0273835
0.0274247
0.0274576
0.0274833
0.0275031
0.0275178
0.0275281
0.0275347
0.0275379
0.0284755
0.0284715
0.0284631
0.0284502
0.0284319
0.0284075
0.0283761
0.0283363
0.0282868
0.0282261
0.0281525
0.028064
0.0279589
0.0278348
0.0276895
0.0275208
0.0273261
0.0271029
0.0268488
0.0265616
0.02624
0.0258837
0.0254942
0.0250762
0.0246388
0.0242015
0.0233194
0.0221204
0.0205144
0.0189621
0.0173204
0.0156704
0.0140047
0.0123479
0.0107118
0.00911198
0.00756123
0.00607186
0.00465436
0.00331812
0.00207006
0.000917644
-0.000128421
-0.00106708
-0.00190156
-0.00262588
-0.0032049
-0.00363253
-0.00391325
-0.00405217
-0.00405218
-0.00391324
-0.00363252
-0.0032049
-0.00262587
-0.00190158
-0.00106708
-0.00012841
0.000917633
0.00207005
0.0033181
0.00465435
0.00607185
0.00756121
0.00911196
0.0107118
0.0123479
0.0140047
0.0156704
0.0173203
0.018962
0.0205144
0.0221204
0.0233194
0.0242015
0.0246388
0.0250762
0.0254942
0.0258837
0.02624
0.0265616
0.0268488
0.0271029
0.0273261
0.0275208
0.0276895
0.0278348
0.0279589
0.0280641
0.0281525
0.0282261
0.0282868
0.0283363
0.0283761
0.0284076
0.028432
0.0284502
0.0284632
0.0284715
0.0284755
0.0292974
0.0292924
0.0292822
0.0292664
0.0292442
0.0292148
0.0291771
0.0291298
0.0290714
0.0290002
0.0289144
0.0288119
0.0286906
0.0285483
0.0283823
0.0281902
0.0279691
0.027716
0.0274278
0.0271016
0.0267355
0.0263289
0.025884
0.0254075
0.0249155
0.0239582
0.0226562
0.02091
0.0191857
0.0174676
0.015721
0.0139623
0.0122005
0.0104507
0.00872665
0.00704233
0.00541072
0.0038445
0.0023552
0.00095522
-0.000352853
-0.00156453
-0.00265193
-0.00362193
-0.00449844
-0.00529856
-0.0059105
-0.00634778
-0.00662984
-0.00676835
-0.00676836
-0.00662985
-0.00634776
-0.00591048
-0.00529856
-0.00449845
-0.00362193
-0.00265192
-0.00156454
-0.000352863
0.00095522
0.00235518
0.00384448
0.00541071
0.00704231
0.00872664
0.0104507
0.0122005
0.0139623
0.015721
0.0174676
0.0191856
0.02091
0.0226562
0.0239582
0.0249155
0.0254075
0.025884
0.0263289
0.0267355
0.0271016
0.0274278
0.027716
0.0279691
0.0281902
0.0283823
0.0285482
0.0286906
0.0288119
0.0289144
0.0290002
0.0290714
0.0291298
0.0291772
0.0292148
0.0292442
0.0292664
0.0292822
0.0292924
0.0292974
0.0300005
0.0299945
0.0299823
0.0299634
0.029937
0.0299022
0.0298578
0.0298025
0.0297344
0.029652
0.029553
0.0294355
0.029297
0.0291351
0.028947
0.0287301
0.0284811
0.0281965
0.0278723
0.0275043
0.027089
0.0266246
0.0261119
0.0255549
0.0244712
0.0228764
0.0212643
0.0195052
0.017697
0.0158662
0.0140166
0.0121591
0.0103048
0.00846696
0.00665932
0.00489568
0.00318818
0.00155058
-6.79744e-06
-0.00145774
-0.00281602
-0.00410138
-0.00521116
-0.00617782
-0.00706907
-0.00804672
-0.00867071
-0.00909315
-0.00936191
-0.0094935
-0.00949351
-0.00936192
-0.00909315
-0.00867071
-0.00804671
-0.00706904
-0.00617781
-0.00521116
-0.00410139
-0.00281605
-0.00145776
-6.79744e-06
0.00155055
0.00318817
0.00489568
0.0066593
0.00846695
0.0103048
0.0121591
0.0140166
0.0158662
0.017697
0.0195052
0.0212643
0.0228764
0.0244712
0.0255549
0.0261119
0.0266246
0.027089
0.0275043
0.0278723
0.0281965
0.0284811
0.0287301
0.0289471
0.0291351
0.029297
0.0294355
0.0295531
0.029652
0.0297345
0.0298025
0.0298579
0.0299023
0.029937
0.0299634
0.0299823
0.0299945
0.0300005
0.0305824
0.0305754
0.030561
0.0305388
0.030508
0.0304675
0.030416
0.030352
0.0302738
0.0301793
0.0300665
0.0299329
0.029776
0.0295934
0.029382
0.029139
0.0288611
0.0285442
0.0281831
0.0277715
0.0273034
0.0267752
0.0261853
0.0250442
0.0233591
0.0216297
0.0198532
0.0180023
0.016103
0.0141751
0.0122312
0.0102833
0.00834314
0.00642311
0.00453762
0.00270171
0.000923192
-0.00077819
-0.00241247
-0.00388464
-0.00525823
-0.00670493
-0.00779233
-0.00867744
-0.00941107
-0.0100121
-0.0104884
-0.0108437
-0.0110798
-0.0111977
-0.0111977
-0.0110798
-0.0108437
-0.0104884
-0.0100121
-0.00941107
-0.00867744
-0.00779234
-0.00670492
-0.00525823
-0.00388464
-0.00241247
-0.000778169
0.000923213
0.00270171
0.0045376
0.0064231
0.00834313
0.0102833
0.0122312
0.0141751
0.016103
0.0180024
0.0198532
0.0216297
0.0233591
0.0250442
0.0261853
0.0267752
0.0273034
0.0277715
0.0281831
0.0285442
0.0288611
0.029139
0.029382
0.0295934
0.0297761
0.0299329
0.0300665
0.0301793
0.0302738
0.030352
0.030416
0.0304675
0.030508
0.0305388
0.030561
0.0305754
0.0305824
0.0310412
0.031033
0.0310164
0.0309908
0.0309553
0.0309088
0.0308498
0.0307768
0.0306878
0.0305807
0.0304532
0.0303027
0.0301265
0.0299219
0.029686
0.0294157
0.029108
0.028759
0.0283623
0.0279075
0.0273853
0.0267894
0.0256266
0.023901
0.022113
0.0202702
0.0183751
0.016426
0.0144356
0.0124186
0.0103889
0.00835953
0.006342
0.00434621
0.00238838
0.000492603
-0.00135683
-0.00309289
-0.0048803
-0.00629396
-0.00749573
-0.00853748
-0.00943381
-0.0101779
-0.0107285
-0.0109397
-0.0112606
-0.0115439
-0.0117445
-0.0118472
-0.0118472
-0.0117445
-0.0115439
-0.0112606
-0.0109397
-0.0107285
-0.010178
-0.00943381
-0.00853745
-0.00749571
-0.00629393
-0.00488029
-0.00309288
-0.00135683
0.000492592
0.00238838
0.00434621
0.006342
0.00835952
0.0103889
0.0124186
0.0144356
0.0164261
0.0183751
0.0202703
0.022113
0.023901
0.0256266
0.0267894
0.0273853
0.0279075
0.0283623
0.028759
0.029108
0.0294157
0.029686
0.029922
0.0301266
0.0303027
0.0304532
0.0305808
0.0306879
0.0307768
0.0308499
0.0309088
0.0309553
0.0309908
0.0310164
0.031033
0.0310412
0.0313754
0.0313661
0.0313471
0.031318
0.0312776
0.0312249
0.0311583
0.0310759
0.0309758
0.0308555
0.0307127
0.0305445
0.030348
0.0301203
0.0298583
0.0295592
0.0292208
0.0288406
0.0284133
0.0279192
0.0273436
0.0261883
0.0244552
0.0226442
0.0207649
0.0188259
0.0168336
0.0147943
0.0127188
0.0106204
0.00851353
0.00641294
0.00433009
0.00226419
0.000231748
-0.00168701
-0.00365313
-0.00523936
-0.0066027
-0.00778111
-0.00874802
-0.00936107
-0.0100659
-0.0107052
-0.0112161
-0.0115724
-0.0118847
-0.0121398
-0.0123189
-0.0124108
-0.0124109
-0.0123189
-0.0121398
-0.0118848
-0.0115724
-0.0112161
-0.0107052
-0.0100659
-0.00936106
-0.00874802
-0.0077811
-0.0066027
-0.00523935
-0.00365314
-0.00168701
0.000231759
0.00226419
0.00433009
0.00641294
0.00851354
0.0106204
0.0127189
0.0147944
0.0168336
0.0188259
0.0207649
0.0226442
0.0244552
0.0261883
0.0273436
0.0279192
0.0284133
0.0288406
0.0292208
0.0295593
0.0298583
0.0301203
0.030348
0.0305445
0.0307127
0.0308556
0.0309758
0.0310759
0.0311583
0.0312249
0.0312777
0.031318
0.0313472
0.0313661
0.0313754
0.0315842
0.0315737
0.0315524
0.0315197
0.0314744
0.0314153
0.0313408
0.0312489
0.0311373
0.0310036
0.0308449
0.0306583
0.0304407
0.0301888
0.0298991
0.0295689
0.0291966
0.0287853
0.0283412
0.0278169
0.0267005
0.0249907
0.023187
0.0213003
0.0193414
0.0173202
0.0152456
0.0131268
0.010975
0.00880321
0.00662702
0.00446663
0.00234219
0.000212955
-0.00195107
-0.00371008
-0.00521612
-0.00647935
-0.00736837
-0.00832877
-0.00919737
-0.00991708
-0.0105851
-0.0111794
-0.0116751
-0.0120665
-0.012383
-0.012628
-0.012796
-0.0128814
-0.0128814
-0.012796
-0.012628
-0.012383
-0.0120665
-0.0116751
-0.0111794
-0.0105851
-0.00991708
-0.00919737
-0.00832876
-0.00736838
-0.00647936
-0.00521612
-0.00371009
-0.00195106
0.000212965
0.0023422
0.00446665
0.00662704
0.00880325
0.0109751
0.0131269
0.0152456
0.0173202
0.0193415
0.0213003
0.023187
0.0249907
0.0267005
0.0278169
0.0283412
0.0287853
0.0291966
0.0295689
0.0298991
0.0301888
0.0304407
0.0306583
0.0308449
0.0310036
0.0311373
0.0312489
0.0313408
0.0314154
0.0314744
0.0315197
0.0315525
0.0315737
0.0315842
0.0316673
0.0316556
0.031632
0.0315956
0.0315454
0.03148
0.0313975
0.031296
0.0311729
0.0310254
0.0308506
0.0306453
0.030406
0.0301289
0.0298101
0.0294452
0.029031
0.0285766
0.0281563
0.0271272
0.0254778
0.0237127
0.021847
0.0198944
0.0178669
0.0157757
0.0136314
0.0114448
0.00922686
0.0069894
0.00474765
0.00253123
0.000429657
-0.00170835
-0.00343716
-0.00486653
-0.00588918
-0.00695209
-0.00790014
-0.00880124
-0.00962489
-0.0103523
-0.0110033
-0.0115752
-0.0120601
-0.0124566
-0.0127732
-0.013013
-0.0131749
-0.0132565
-0.0132565
-0.0131748
-0.013013
-0.0127732
-0.0124566
-0.0120601
-0.0115752
-0.0110033
-0.0103523
-0.00962488
-0.00880125
-0.00790014
-0.0069521
-0.00588919
-0.00486653
-0.00343717
-0.00170833
0.000429668
0.00253124
0.00474768
0.00698943
0.00922687
0.0114449
0.0136315
0.0157757
0.0178669
0.0198944
0.0218471
0.0237127
0.0254778
0.0271272
0.0281563
0.0285766
0.029031
0.0294452
0.0298101
0.0301289
0.030406
0.0306453
0.0308507
0.0310254
0.0311729
0.031296
0.0313976
0.03148
0.0315454
0.0315956
0.031632
0.0316557
0.0316673
0.0316248
0.031612
0.031586
0.0315461
0.0314911
0.0314194
0.0313292
0.0312181
0.0310835
0.0309223
0.0307314
0.0305072
0.0302459
0.0299435
0.0295954
0.0291941
0.028724
0.0281462
0.0274045
0.0258868
0.0241976
0.0223809
0.0204597
0.0184496
0.0163638
0.0142142
0.0120126
0.00977059
0.00749872
0.0052052
0.00289344
0.000556638
-0.00134767
-0.00293497
-0.00410259
-0.00529921
-0.00636962
-0.00738307
-0.00831925
-0.0091883
-0.0099826
-0.0106956
-0.0113303
-0.0118859
-0.0123599
-0.012752
-0.0130648
-0.0133
-0.0134576
-0.0135367
-0.0135367
-0.0134576
-0.0133
-0.0130648
-0.012752
-0.0123599
-0.0118859
-0.0113303
-0.0106956
-0.00998261
-0.00918831
-0.00831925
-0.00738308
-0.00636965
-0.00529922
-0.00410259
-0.00293497
-0.00134767
0.000556628
0.00289343
0.0052052
0.00749872
0.00977059
0.0120126
0.0142142
0.0163638
0.0184497
0.0204597
0.0223809
0.0241976
0.0258868
0.0274046
0.0281462
0.028724
0.0291941
0.0295954
0.0299435
0.0302459
0.0305072
0.0307314
0.0309224
0.0310835
0.0312181
0.0313292
0.0314195
0.0314911
0.0315462
0.0315861
0.0316121
0.0316249
0.0314576
0.0314437
0.0314154
0.0313721
0.0313124
0.0312347
0.0311369
0.0310166
0.0308708
0.0306963
0.0304894
0.0302464
0.0299633
0.0296361
0.0292614
0.028835
0.0283429
0.0276942
0.0262618
0.024646
0.0228906
0.0210187
0.0190464
0.0169872
0.0148531
0.0126563
0.0104095
0.00812588
0.00581712
0.00349009
0.00114198
-0.000764511
-0.0023373
-0.00346434
-0.00459889
-0.0057127
-0.00675817
-0.00773885
-0.00864989
-0.00949144
-0.0102603
-0.0109535
-0.0115706
-0.0121107
-0.0125728
-0.0129568
-0.0132634
-0.0134934
-0.0136471
-0.013724
-0.013724
-0.0136471
-0.0134934
-0.0132634
-0.0129567
-0.0125728
-0.0121107
-0.0115706
-0.0109536
-0.0102604
-0.00949145
-0.0086499
-0.00773884
-0.00675818
-0.00571273
-0.00459891
-0.00346438
-0.00233732
-0.000764521
0.00114198
0.00349009
0.00581712
0.00812588
0.0104095
0.0126563
0.0148531
0.0169872
0.0190464
0.0210187
0.0228906
0.024646
0.0262618
0.0276943
0.0283429
0.028835
0.0292614
0.0296362
0.0299633
0.0302465
0.0304894
0.0306963
0.0308708
0.0310166
0.0311369
0.0312348
0.0313125
0.0313721
0.0314155
0.0314437
0.0314576
0.0311666
0.0311517
0.0311214
0.0310748
0.0310108
0.0309274
0.0308225
0.0306934
0.030537
0.0303498
0.0301276
0.0298662
0.0295612
0.0292086
0.028807
0.0283645
0.0279362
0.026861
0.0251312
0.0233905
0.0215639
0.0196403
0.0176244
0.0155255
0.0133539
0.0111209
0.00884004
0.00652855
0.00420199
0.00187124
3.21661e-05
-0.0013178
-0.0026599
-0.0038518
-0.00497838
-0.00605316
-0.00706662
-0.00801607
-0.00889879
-0.0097132
-0.0104572
-0.0111289
-0.0117271
-0.0122511
-0.0127002
-0.013074
-0.0133729
-0.013597
-0.0137465
-0.0138213
-0.0138213
-0.0137465
-0.013597
-0.0133729
-0.013074
-0.0127002
-0.0122511
-0.0117272
-0.0111289
-0.0104572
-0.0097132
-0.00889881
-0.0080161
-0.00706664
-0.00605319
-0.00497841
-0.00385183
-0.0026599
-0.0013178
3.21555e-05
0.00187123
0.00420199
0.00652857
0.00884006
0.011121
0.0133539
0.0155255
0.0176244
0.0196403
0.021564
0.0233905
0.0251312
0.026861
0.0279362
0.0283645
0.028807
0.0292086
0.0295612
0.0298662
0.0301276
0.0303498
0.0305371
0.0306934
0.0308225
0.0309274
0.0310108
0.0310749
0.0311214
0.0311517
0.0311667
0.0307538
0.0307379
0.0307057
0.0306562
0.0305881
0.0304995
0.0303881
0.0302511
0.030085
0.029886
0.0296496
0.0293706
0.0290438
0.0286633
0.0282221
0.0277031
0.0270127
0.0255248
0.0238543
0.0220824
0.0202153
0.0182552
0.0162078
0.0140813
0.0118842
0.00962587
0.00731885