/*--------------------------------*- C++ -*----------------------------------*\
  =========                 |
  \\      /  F ield         | OpenFOAM: The Open Source CFD Toolbox
   \\    /   O peration     | Website:  https://openfoam.org
    \\  /    A nd           | Version:  7
     \\/     M anipulation  |
\*---------------------------------------------------------------------------*/
FoamFile
{
    version     2.0;
    format      ascii;
    class       volScalarField;
    location    "0.034";
    object      gradTx;
}
// * * * * * * * * * * * * * * * * * * * * * * * * * * * * * * * * * * * * * //

dimensions      [0 -1 0 1 0 0 0];

internalField   nonuniform List<scalar> 
10000
(
0.00101394
0.00303762
0.0050487
0.00703888
0.00899984
0.0109235
0.012802
0.0146275
0.0163925
0.0180897
0.0197124
0.0212537
0.0227076
0.0240681
0.0253299
0.026488
0.0275379
0.0284755
0.0292974
0.0300005
0.0305824
0.0310412
0.0313754
0.0315842
0.0316673
0.0316249
0.0314576
0.0311667
0.0307538
0.0302212
0.0295712
0.028807
0.027932
0.0269499
0.0258648
0.0246815
0.0234047
0.0220396
0.0205919
0.0190671
0.0174714
0.0158107
0.0140914
0.0123198
0.0105026
0.00864647
0.00675835
0.00484526
0.00291438
0.000972796
-0.000972351
-0.00291393
-0.00484484
-0.00675794
-0.00864609
-0.0105022
-0.0123194
-0.014091
-0.0158103
-0.017471
-0.0190667
-0.0205915
-0.0220393
-0.0234043
-0.0246811
-0.0258645
-0.0269495
-0.0279316
-0.0288067
-0.0295709
-0.0302208
-0.0307535
-0.0311664
-0.0314573
-0.0316246
-0.031667
-0.031584
-0.0313752
-0.031041
-0.0305822
-0.0300003
-0.0292972
-0.0284753
-0.0275377
-0.0264879
-0.0253298
-0.024068
-0.0227075
-0.0212536
-0.0197122
-0.0180896
-0.0163924
-0.0146274
-0.0128019
-0.0109235
-0.00899979
-0.00703883
-0.00504869
-0.0030376
-0.00101393
0.00101404
0.00303787
0.00504911
0.0070394
0.00900049
0.0109242
0.0128027
0.0146282
0.016393
0.0180901
0.0197125
0.0212535
0.0227069
0.024067
0.0253282
0.0264856
0.0275347
0.0284715
0.0292924
0.0299945
0.0305754
0.031033
0.0313661
0.0315737
0.0316557
0.0316121
0.0314437
0.0311517
0.0307379
0.0302044
0.0295538
0.028789
0.0279135
0.026931
0.0258459
0.0246625
0.0233859
0.0220212
0.0205739
0.01905
0.0174552
0.0157957
0.0140778
0.0123079
0.0104923
0.00863784
0.00675146
0.00484026
0.00291133
0.000971759
-0.000971324
-0.00291088
-0.00483983
-0.00675106
-0.00863744
-0.0104919
-0.0123075
-0.0140775
-0.0157953
-0.0174548
-0.0190496
-0.0205736
-0.0220208
-0.0233855
-0.0246622
-0.0258455
-0.0269307
-0.0279131
-0.0287886
-0.0295534
-0.0302041
-0.0307376
-0.0311515
-0.0314434
-0.0316118
-0.0316554
-0.0315735
-0.0313659
-0.0310328
-0.0305752
-0.0299943
-0.0292922
-0.0284713
-0.0275345
-0.0264854
-0.025328
-0.0240669
-0.0227068
-0.0212534
-0.0197124
-0.01809
-0.0163929
-0.014628
-0.0128026
-0.0109242
-0.00900043
-0.00703937
-0.00504909
-0.00303785
-0.00101404
0.00101419
0.00303837
0.00504992
0.00704046
0.00900173
0.0109256
0.0128041
0.0146294
0.016394
0.0180908
0.0197126
0.0212529
0.0227055
0.0240645
0.0253245
0.0264806
0.0275281
0.0284632
0.0292822
0.0299823
0.030561
0.0310164
0.0313472
0.0315524
0.031632
0.0315861
0.0314155
0.0311214
0.0307057
0.0301705
0.0295183
0.0287524
0.027876
0.0268929
0.0258075
0.0246241
0.0233478
0.0219837
0.0205376
0.0190151
0.0174223
0.0157654
0.0140504
0.0122836
0.0104714
0.00862036
0.00673754
0.00483008
0.00290511
0.000969662
-0.000969228
-0.00290467
-0.00482965
-0.00673714
-0.00861996
-0.010471
-0.0122832
-0.01405
-0.015765
-0.017422
-0.0190147
-0.0205372
-0.0219834
-0.0233474
-0.0246237
-0.0258071
-0.0268926
-0.0278756
-0.028752
-0.029518
-0.0301701
-0.0307054
-0.0311212
-0.0314152
-0.0315858
-0.0316317
-0.0315522
-0.0313469
-0.0310162
-0.0305608
-0.0299821
-0.029282
-0.028463
-0.0275279
-0.0264804
-0.0253244
-0.0240644
-0.0227054
-0.0212528
-0.0197125
-0.0180906
-0.016394
-0.0146293
-0.012804
-0.0109255
-0.00900167
-0.00704042
-0.00504989
-0.00303836
-0.00101418
0.00101445
0.00303908
0.00505106
0.00704196
0.00900348
0.0109275
0.0128059
0.0146311
0.0163954
0.0180915
0.0197125
0.0212518
0.0227031
0.0240605
0.0253187
0.0264726
0.0275178
0.0284502
0.0292664
0.0299634
0.0305388
0.0309908
0.031318
0.0315197
0.0315956
0.0315462
0.0313721
0.0310749
0.0306562
0.0301184
0.029464
0.0286963
0.0278185
0.0268346
0.0257486
0.0245653
0.0232894
0.0219264
0.0204818
0.0189616
0.0173719
0.0157188
0.0140084
0.0122466
0.0104395
0.00859366
0.00671619
0.00481438
0.00289547
0.000966422
-0.000965999
-0.00289503
-0.00481396
-0.00671576
-0.00859327
-0.0104391
-0.0122462
-0.014008
-0.0157185
-0.0173715
-0.0189612
-0.0204814
-0.021926
-0.0232891
-0.0245649
-0.0257483
-0.0268343
-0.0278182
-0.028696
-0.0294637
-0.0301181
-0.0306559
-0.0310746
-0.0313719
-0.0315459
-0.0315954
-0.0315194
-0.0313178
-0.0309906
-0.0305386
-0.0299632
-0.0292662
-0.02845
-0.0275176
-0.0264725
-0.0253186
-0.0240604
-0.022703
-0.0212517
-0.0197124
-0.0180914
-0.0163953
-0.014631
-0.0128059
-0.0109274
-0.00900343
-0.00704191
-0.00505103
-0.00303907
-0.00101443
0.00101475
0.00303997
0.00505246
0.00704379
0.00900564
0.0109298
0.0128082
0.014633
0.0163968
0.0180921
0.0197119
0.0212497
0.0226992
0.0240545
0.0253102
0.0264612
0.0275031
0.0284319
0.0292442
0.029937
0.030508
0.0309553
0.0312777
0.0314744
0.0315454
0.0314911
0.0313124
0.0310108
0.0305881
0.0300467
0.0293894
0.0286192
0.0277397
0.0267545
0.025668
0.0244846
0.0232094
0.0218476
0.0204051
0.0188879
0.0173024
0.0156547
0.0139509
0.0121962
0.0103961
0.00855717
0.00668676
0.00479254
0.00288197
0.000961848
-0.000961414
-0.00288154
-0.00479213
-0.00668634
-0.00855679
-0.0103957
-0.0121958
-0.0139505
-0.0156544
-0.017302
-0.0188875
-0.0204047
-0.0218473
-0.023209
-0.0244843
-0.0256677
-0.0267542
-0.0277393
-0.0286189
-0.0293891
-0.0300464
-0.0305878
-0.0310105
-0.0313122
-0.0314909
-0.0315452
-0.0314742
-0.0312774
-0.0309551
-0.0305078
-0.0299368
-0.029244
-0.0284318
-0.0275029
-0.026461
-0.02531
-0.0240544
-0.0226991
-0.0212496
-0.0197118
-0.0180919
-0.0163967
-0.0146329
-0.0128081
-0.0109297
-0.00900556
-0.00704375
-0.00505244
-0.00303996
-0.00101473
0.00101508
0.00304098
0.00505404
0.00704584
0.00900799
0.0109322
0.0128105
0.0146349
0.0163979
0.0180921
0.0197104
0.0212463
0.0226934
0.0240459
0.0252983
0.0264456
0.0274833
0.0284076
0.0292148
0.0299023
0.0304675
0.0309088
0.0312249
0.0314154
0.03148
0.0314194
0.0312347
0.0309274
0.0304995
0.0299536
0.0292924
0.0285192
0.0276374
0.0266509
0.0255637
0.0243804
0.0231058
0.0217456
0.0203055
0.0187919
0.0172115
0.0155711
0.0138764
0.0121316
0.0103409
0.00851028
0.0066483
0.0047636
0.00286386
0.000955665
-0.000955252
-0.00286343
-0.00476317
-0.00664789
-0.0085099
-0.0103405
-0.0121312
-0.013876
-0.0155707
-0.0172111
-0.0187915
-0.0203051
-0.0217452
-0.0231055
-0.02438
-0.0255633
-0.0266506
-0.0276371
-0.0285189
-0.0292921
-0.0299533
-0.0304992
-0.0309271
-0.0312345
-0.0314192
-0.0314798
-0.0314151
-0.0312247
-0.0309086
-0.0304673
-0.029902
-0.0292147
-0.0284074
-0.0274832
-0.0264454
-0.0252981
-0.0240458
-0.0226933
-0.0212462
-0.0197103
-0.0180919
-0.0163978
-0.0146348
-0.0128104
-0.0109321
-0.00900793
-0.0070458
-0.00505401
-0.00304096
-0.00101508
0.00101545
0.00304202
0.00505571
0.00704796
0.00901037
0.0109346
0.0128126
0.0146364
0.0163983
0.018091
0.0197074
0.0212409
0.0226851
0.024034
0.0252823
0.026425
0.0274576
0.0283761
0.0291772
0.0298579
0.030416
0.0308498
0.0311583
0.0313408
0.0313976
0.0313292
0.0311369
0.0308225
0.0303881
0.0298365
0.0291706
0.0283938
0.0275094
0.0265213
0.0254334
0.0242501
0.0229765
0.021618
0.0201806
0.0186707
0.0170961
0.015465
0.0137832
0.0120527
0.0102738
0.00845223
0.00659929
0.00472578
0.00283988
0.000947438
-0.000947036
-0.00283946
-0.00472535
-0.00659887
-0.00845184
-0.0102734
-0.0120523
-0.0137828
-0.0154646
-0.0170957
-0.0186703
-0.0201802
-0.0216176
-0.0229761
-0.0242498
-0.025433
-0.0265209
-0.0275091
-0.0283935
-0.0291703
-0.0298362
-0.0303878
-0.0308222
-0.0311367
-0.0313289
-0.0313973
-0.0313406
-0.0311581
-0.0308496
-0.0304158
-0.0298577
-0.029177
-0.0283759
-0.0274574
-0.0264248
-0.0252822
-0.0240339
-0.0226849
-0.0212408
-0.0197073
-0.0180909
-0.0163982
-0.0146363
-0.0128125
-0.0109345
-0.0090103
-0.00704791
-0.00505567
-0.003042
-0.00101543
0.0010158
0.00304305
0.00505729
0.00704995
0.0090125
0.0109366
0.0128141
0.014637
0.0163976
0.0180884
0.0197024
0.0212328
0.0226733
0.024018
0.0252613
0.0263984
0.0274247
0.0283363
0.0291299
0.0298025
0.030352
0.0307768
0.0310759
0.0312489
0.031296
0.0312181
0.0310166
0.0306934
0.0302511
0.0296926
0.029021
0.0282398
0.0273525
0.0263628
0.0252743
0.0240913
0.0228186
0.0214621
0.0200276
0.0185208
0.0169513
0.0153316
0.0136688
0.0119604
0.0101967
0.0083822
0.00653703
0.00467616
0.00280788
0.000936384
-0.000935993
-0.00280746
-0.00467574
-0.00653662
-0.0083818
-0.0101963
-0.01196
-0.0136684
-0.0153311
-0.0169509
-0.0185204
-0.0200272
-0.0214617
-0.0228182
-0.024091
-0.025274
-0.0263624
-0.0273522
-0.0282395
-0.0290207
-0.0296923
-0.0302508
-0.0306931
-0.0310163
-0.0312178
-0.0312958
-0.0312487
-0.0310757
-0.0307766
-0.0303518
-0.0298023
-0.0291297
-0.0283361
-0.0274245
-0.0263982
-0.0252612
-0.0240178
-0.0226732
-0.0212327
-0.0197023
-0.0180883
-0.0163975
-0.0146369
-0.012814
-0.0109366
-0.00901244
-0.00704991
-0.00505725
-0.00304302
-0.00101579
0.00101611
0.00304395
0.00505866
0.00705159
0.00901416
0.010938
0.0128147
0.0146363
0.0163951
0.0180836
0.0196946
0.0212213
0.0226574
0.0239969
0.0252343
0.0263646
0.0273834
0.0282868
0.0290714
0.0297345
0.0302738
0.0306878
0.0309758
0.0311373
0.0311729
0.0310835
0.0308708
0.030537
0.0300851
0.0295181
0.0288397
0.0280535
0.0271631
0.026172
0.0250834
0.023901
0.0226291
0.0212749
0.0198447
0.0183385
0.0167694
0.0151617
0.0135285
0.0118606
0.0101163
0.00829848
0.006456
0.00460943
0.00276441
0.00092135
-0.000920947
-0.00276398
-0.004609
-0.0064556
-0.00829807
-0.0101159
-0.0118602
-0.0135282
-0.0151613
-0.0167689
-0.0183381
-0.0198443
-0.0212745
-0.0226287
-0.0239006
-0.0250831
-0.0261717
-0.0271628
-0.0280532
-0.0288394
-0.0295178
-0.0300848
-0.0305368
-0.0308705
-0.0310832
-0.0311726
-0.0311371
-0.0309756
-0.0306876
-0.0302736
-0.0297342
-0.0290712
-0.0282867
-0.0273833
-0.0263645
-0.0252341
-0.0239967
-0.0226572
-0.0212212
-0.0196945
-0.0180835
-0.0163951
-0.0146363
-0.0128146
-0.0109379
-0.0090141
-0.00705156
-0.00505863
-0.00304392
-0.0010161
0.00101634
0.00304463
0.00505963
0.00705267
0.009015
0.0109382
0.0128138
0.0146338
0.0163904
0.0180759
0.0196832
0.0212055
0.0226363
0.0239696
0.0252
0.0263224
0.0273324
0.0282261
0.0290002
0.029652
0.0301793
0.0305808
0.0308555
0.0310036
0.0310254
0.0309224
0.0306963
0.0303498
0.029886
0.0293089
0.0286222
0.0278303
0.0269369
0.0259452
0.0248575
0.0236764
0.0224039
0.0210524
0.019633
0.0181224
0.016537
0.0149365
0.0133501
0.0117722
0.0100535
0.00819389
0.00634407
0.00451637
0.00270425
0.00090065
-0.000900237
-0.00270384
-0.00451596
-0.00634365
-0.00819348
-0.010053
-0.0117718
-0.0133497
-0.0149362
-0.0165366
-0.018122
-0.0196326
-0.021052
-0.0224035
-0.023676
-0.0248572
-0.0259449
-0.0269366
-0.02783
-0.0286219
-0.0293086
-0.0298858
-0.0303495
-0.030696
-0.0309221
-0.0310252
-0.0310033
-0.0308553
-0.0305805
-0.0301791
-0.0296518
-0.029
-0.0282259
-0.0273322
-0.0263222
-0.0251998
-0.0239694
-0.0226361
-0.0212054
-0.0196831
-0.0180758
-0.0163903
-0.0146338
-0.0128138
-0.0109381
-0.00901495
-0.00705263
-0.00505962
-0.00304461
-0.00101633
0.00101648
0.00304499
0.00506005
0.00705289
0.00901471
0.0109369
0.012811
0.0146289
0.0163827
0.0180646
0.0196675
0.0211844
0.0226089
0.023935
0.0251571
0.0262703
0.02727
0.0281525
0.0289144
0.0295531
0.0300665
0.0304532
0.0307127
0.0308449
0.0308507
0.0307314
0.0304894
0.0301276
0.0296496
0.0290599
0.0283632
0.0275647
0.0266684
0.0256777
0.0245931
0.0234165
0.022137
0.0207837
0.0194055
0.0178821
0.0162296
0.0146156
0.0130887
0.0117565
0.0100726
0.00803284
0.00617472
0.00438309
0.00262095
0.000872433
-0.000872042
-0.00262052
-0.00438269
-0.00617431
-0.00803241
-0.0100722
-0.0117561
-0.0130884
-0.0146152
-0.0162292
-0.0178817
-0.0194051
-0.0207833
-0.0221367
-0.0234161
-0.0245927
-0.0256774
-0.0266681
-0.0275644
-0.028363
-0.0290595
-0.0296493
-0.0301273
-0.0304892
-0.0307312
-0.0308504
-0.0308447
-0.0307125
-0.030453
-0.0300662
-0.0295528
-0.0289142
-0.0281523
-0.0272698
-0.0262701
-0.0251569
-0.0239348
-0.0226088
-0.0211843
-0.0196674
-0.0180645
-0.0163825
-0.0146289
-0.012811
-0.0109368
-0.00901464
-0.00705285
-0.00506003
-0.00304496
-0.00101647
0.00101647
0.00304488
0.00505971
0.007052
0.00901289
0.0109337
0.0128058
0.014621
0.0163712
0.0180488
0.0196464
0.021157
0.0225741
0.0238917
0.0251042
0.0262067
0.0271946
0.0280641
0.0288119
0.0294355
0.0299329
0.0303027
0.0305445
0.0306583
0.0306453
0.0305072
0.0302464
0.0298662
0.0293706
0.0287653
0.0280562
0.0272498
0.0263503
0.0253644
0.0242852
0.0231293
0.0218205
0.0204228
0.0192126
0.0176691
0.015793
0.0141259
0.0125578
0.0110388
0.00940306
0.00764288
0.00590427
0.00419638
0.00250996
0.000835513
-0.000835111
-0.00250955
-0.00419597
-0.00590385
-0.00764244
-0.00940266
-0.0110384
-0.0125574
-0.0141256
-0.0157926
-0.0176688
-0.0192122
-0.0204225
-0.0218201
-0.0231289
-0.0242849
-0.0253641
-0.02635
-0.0272495
-0.0280559
-0.028765
-0.0293703
-0.0298659
-0.0302462
-0.0305069
-0.0306451
-0.0306581
-0.0305442
-0.0303025
-0.0299326
-0.0294353
-0.0288117
-0.0280639
-0.0271944
-0.0262065
-0.0251041
-0.0238916
-0.022574
-0.0211569
-0.0196463
-0.0180487
-0.0163711
-0.0146209
-0.0128057
-0.0109336
-0.00901283
-0.00705198
-0.00505968
-0.00304485
-0.00101645
0.00101627
0.0030442
0.00505837
0.0070497
0.00900922
0.010928
0.0127975
0.0146093
0.0163553
0.0180277
0.019619
0.0211222
0.0225307
0.0238385
0.0250399
0.02613
0.0271042
0.0279589
0.0286906
0.029297
0.0297761
0.0301266
0.030348
0.0304407
0.030406
0.0302459
0.0299633
0.0295612
0.0290438
0.0284187
0.0276929
0.0268775
0.0259713
0.0250008
0.0239151
0.0228605
0.0214658
0.0197558
0.0182567
0.0167025
0.0150578
0.0134592
0.0119078
0.0103745
0.00880357
0.00718847
0.00557102
0.00396596
0.00237386
0.000790441
-0.000790028
-0.00237345
-0.00396553
-0.00557059
-0.00718807
-0.00880317
-0.0103741
-0.0119074
-0.0134588
-0.0150574
-0.0167021
-0.0182563
-0.0197555
-0.0214654
-0.0228602
-0.0239148
-0.0250005
-0.0259709
-0.0268772
-0.0276926
-0.0284184
-0.0290435
-0.0295609
-0.029963
-0.0302457
-0.0304057
-0.0304405
-0.0303478
-0.0301263
-0.0297758
-0.0292968
-0.0286904
-0.0279587
-0.0271041
-0.0261298
-0.0250398
-0.0238383
-0.0225306
-0.021122
-0.0196188
-0.0180276
-0.0163552
-0.0146093
-0.0127975
-0.010928
-0.00900916
-0.00704968
-0.00505835
-0.00304418
-0.00101625
0.00101584
0.00304284
0.00505588
0.00704569
0.00900322
0.0109195
0.0127857
0.0145933
0.0163342
0.0180003
0.0195842
0.0210788
0.0224774
0.0237738
0.0249625
0.0260385
0.0269971
0.0278348
0.0285483
0.0291351
0.0295934
0.029922
0.0301203
0.0301888
0.0301289
0.0299435
0.0296362
0.0292086
0.0286633
0.0280133
0.0272622
0.0264417
0.0255055
0.0246049
0.0233708
0.0218114
0.0203154
0.0187631
0.017251
0.0157321
0.0141943
0.0126733
0.0111766
0.00969267
0.00820154
0.00669897
0.00519684
0.00370262
0.00221737
0.000738496
-0.000738094
-0.00221693
-0.00370221
-0.00519645
-0.00669855
-0.00820113
-0.00969227
-0.0111763
-0.012673
-0.0141939
-0.0157317
-0.0172507
-0.0187627
-0.020315
-0.0218111
-0.0233705
-0.0246046
-0.0255052
-0.0264414
-0.0272619
-0.028013
-0.028663
-0.0292084
-0.0296359
-0.0299433
-0.0301287
-0.0301885
-0.0301201
-0.0299217
-0.0295932
-0.0291349
-0.028548
-0.0278346
-0.0269969
-0.0260383
-0.0249624
-0.0237737
-0.0224773
-0.0210787
-0.0195841
-0.0180002
-0.0163341
-0.0145932
-0.0127856
-0.0109194
-0.0090032
-0.00704566
-0.00505582
-0.0030428
-0.00101584
0.00101511
0.00304064
0.00505195
0.00703967
0.00899457
0.0109075
0.0127696
0.0145722
0.0163069
0.0179658
0.0195411
0.0210257
0.0224129
0.0236963
0.0248705
0.0259302
0.0268711
0.0276895
0.0283823
0.0289471
0.029382
0.029686
0.0298583
0.0298992
0.0298101
0.0295954
0.0292615
0.028807
0.0282221
0.0275456
0.0267404
0.0259636
0.0248503
0.0234098
0.0220273
0.0205695
0.0191039
0.0176255
0.0161584
0.0146972
0.0132408
0.0117996
0.0103776
0.00897056
0.00757123
0.00617702
0.00479048
0.00341323
0.0020443
0.00068094
-0.000680517
-0.00204389
-0.00341282
-0.00479007
-0.00617662
-0.00757081
-0.00897014
-0.0103772
-0.0117992
-0.0132404
-0.0146969
-0.016158
-0.0176251
-0.0191035
-0.0205692
-0.022027
-0.0234095
-0.02485
-0.0259633
-0.0267401
-0.0275454
-0.0282219
-0.0288067
-0.0292612
-0.0295951
-0.0298098
-0.0298989
-0.0298581
-0.0296858
-0.0293818
-0.0289468
-0.0283821
-0.0276893
-0.026871
-0.02593
-0.0248703
-0.0236962
-0.0224127
-0.0210256
-0.019541
-0.0179657
-0.0163068
-0.0145721
-0.0127695
-0.0109075
-0.00899453
-0.00703964
-0.00505188
-0.0030406
-0.00101512
0.00101411
0.00303747
0.00504638
0.00703131
0.00898281
0.0108916
0.0127487
0.0145452
0.0162728
0.0179231
0.0194885
0.0209617
0.0223357
0.0236044
0.024762
0.0258034
0.0267242
0.0275208
0.0281902
0.0287302
0.0291391
0.0294157
0.0295593
0.0295689
0.0294452
0.0291941
0.028835
0.0283645
0.0277031
0.0270396
0.0260263
0.0246798
0.0233876
0.0220165
0.0206309
0.0192196
0.0178014
0.016384
0.0149779
0.0135855
0.012209
0.0108522
0.00951685
0.00820128
0.00690307
0.00562126
0.00435496
0.00310157
0.00185742
0.000618705
-0.000618271
-0.00185699
-0.00310117
-0.00435456
-0.00562086
-0.00690267
-0.00820089
-0.00951646
-0.0108518
-0.0122086
-0.0135852
-0.0149775
-0.0163836
-0.017801
-0.0192193
-0.0206306
-0.0220162
-0.0233873
-0.0246795
-0.026026
-0.0270393
-0.0277028
-0.0283642
-0.0288347
-0.0291939
-0.0294449
-0.0295687
-0.029559
-0.0294155
-0.0291388
-0.0287299
-0.02819
-0.0275206
-0.0267241
-0.0258032
-0.0247618
-0.0236042
-0.0223356
-0.0209615
-0.0194884
-0.017923
-0.0162727
-0.0145452
-0.0127487
-0.0108916
-0.00898277
-0.00703126
-0.00504634
-0.00303743
-0.00101408
0.0010127
0.00303321
0.00503896
0.00702027
0.00896755
0.0108713
0.0127224
0.0145118
0.0162309
0.0178714
0.0194254
0.0208854
0.0222446
0.0234966
0.0246354
0.0256561
0.0265542
0.0273261
0.0279691
0.0284812
0.0288611
0.0291081
0.0292208
0.0291967
0.029031
0.028724
0.0283429
0.0279362
0.0270127
0.0257313
0.0245016
0.0231921
0.0218667
0.0205129
0.0191474
0.0177759
0.0164082
0.0150521
0.0137142
0.0123978
0.0111055
0.00983917
0.00859896
0.00738355
0.00619325
0.00503
0.00389145
0.00277013
0.00165888
0.000552615
-0.000552191
-0.00165847
-0.00276971
-0.00389104
-0.0050296
-0.00619286
-0.00738315
-0.00859857
-0.00983876
-0.0111051
-0.0123974
-0.0137138
-0.0150517
-0.0164079
-0.0177756
-0.0191471
-0.0205126
-0.0218664
-0.0231918
-0.0245013
-0.025731
-0.0270124
-0.027936
-0.0283426
-0.0287237
-0.0290308
-0.0291964
-0.0292205
-0.0291078
-0.0288609
-0.0284809
-0.0279689
-0.0273259
-0.026554
-0.0256559
-0.0246353
-0.0234964
-0.0222445
-0.0208853
-0.0194253
-0.0178713
-0.0162308
-0.0145117
-0.0127224
-0.0108713
-0.00896751
-0.00702024
-0.00503891
-0.00303315
-0.0010127
0.0010109
0.00302771
0.00502947
0.00700629
0.00894838
0.0108461
0.0126901
0.0144711
0.0161805
0.0178097
0.0193507
0.0207959
0.0221383
0.0233713
0.0244891
0.0254864
0.0263589
0.0271029
0.027716
0.0281966
0.0285442
0.028759
0.0288406
0.0287854
0.0285766
0.0281462
0.0276943
0.026861
0.0255248
0.0242118
0.02291
0.021587
0.0202534
0.0189127
0.0175736
0.0162431
0.0149289
0.0136372
0.0123729
0.0111385
0.00993576
0.00876656
0.00762879
0.00651856
0.00543895
0.00440065
0.00340075
0.00242174
0.00145134
0.00048373
-0.000483296
-0.00145093
-0.00242133
-0.00340034
-0.00440025
-0.00543857
-0.00651817
-0.0076284
-0.00876618
-0.00993539
-0.0111381
-0.0123726
-0.0136369
-0.0149285
-0.0162428
-0.0175733
-0.0189124
-0.0202532
-0.0215867
-0.0229097
-0.0242115
-0.0255246
-0.0268607
-0.027694
-0.0281459
-0.0285763
-0.0287851
-0.0288404
-0.0287587
-0.028544
-0.0281963
-0.0277157
-0.0271027
-0.0263587
-0.0254863
-0.024489
-0.0233712
-0.0221381
-0.0207958
-0.0193505
-0.0178096
-0.0161804
-0.014471
-0.01269
-0.0108461
-0.00894835
-0.00700625
-0.00502942
-0.00302766
-0.00101088
0.00100866
0.00302086
0.00501767
0.00698905
0.00892493
0.0108155
0.0126511
0.0144225
0.0161207
0.017737
0.0192633
0.0206918
0.0220154
0.0232273
0.0243215
0.0252927
0.0261363
0.0268488
0.0274278
0.0278723
0.0281831
0.0283623
0.0284133
0.0283412
0.0281564
0.0274046
0.0262618
0.0251312
0.0238543
0.0225373
0.02121
0.0198764
0.0185442
0.01722
0.0159115
0.0146253
0.0133681
0.0121453
0.0109604
0.00981351
0.008705
0.00764068
0.00661423
0.00561042
0.00463446
0.00372667
0.00288478
0.00206178
0.00123923
0.000413691
-0.000413257
-0.00123882
-0.00206137
-0.00288437
-0.00372628
-0.00463407
-0.00561001
-0.00661385
-0.0076403
-0.00870463
-0.00981314
-0.01096
-0.0121449
-0.0133678
-0.014625
-0.0159111
-0.0172197
-0.0185439
-0.0198761
-0.0212097
-0.022537
-0.023854
-0.0251309
-0.0262615
-0.0274043
-0.0281561
-0.0283409
-0.0284131
-0.0283621
-0.0281829
-0.0278721
-0.0274276
-0.0268486
-0.0261361
-0.0252925
-0.0243213
-0.0232271
-0.0220152
-0.0206917
-0.0192632
-0.0177369
-0.0161206
-0.0144225
-0.0126511
-0.0108155
-0.0089249
-0.00698903
-0.00501764
-0.00302081
-0.00100864
0.00100592
0.00301255
0.00500343
0.00696829
0.00889683
0.010779
0.0126051
0.0143654
0.0160509
0.0176526
0.0191624
0.0205721
0.0218746
0.023063
0.024131
0.0250732
0.0258847
0.0265617
0.0271016
0.0275043
0.0277715
0.0279075
0.0279193
0.0278169
0.0271273
0.0258868
0.0246461
0.0233905
0.0220824
0.0207471
0.0194047
0.0180665
0.0167419
0.0154389
0.0141652
0.0129272
0.0117311
0.0105817
0.00948367
0.00843048
0.007416
0.00646749
0.00557139
0.00467204
0.00376233
0.00298859
0.00235154
0.00170241
0.00103075
0.000345208
-0.000344795
-0.00103031
-0.00170199
-0.00235114
-0.00298821
-0.00376193
-0.00467165
-0.00557101
-0.00646712
-0.00741563
-0.00843011
-0.0094833
-0.0105813
-0.0117307
-0.0129268
-0.0141648
-0.0154386
-0.0167416
-0.0180662
-0.0194044
-0.0207468
-0.0220821
-0.0233902
-0.0246458
-0.0258866
-0.027127
-0.0278166
-0.027919
-0.0279073
-0.0277712
-0.0275041
-0.0271014
-0.0265614
-0.0258845
-0.025073
-0.0241309
-0.0230628
-0.0218745
-0.020572
-0.0191622
-0.0176525
-0.0160508
-0.0143653
-0.012605
-0.010779
-0.00889681
-0.00696826
-0.0050034
-0.00301249
-0.0010059
0.00100268
0.00300267
0.00498655
0.00694375
0.00886379
0.0107363
0.0125514
0.0142991
0.0159702
0.0175556
0.0190468
0.0204358
0.0217149
0.0228773
0.0239165
0.0248268
0.0256027
0.02624
0.0267355
0.027089
0.0273034
0.0273853
0.0273436
0.0267005
0.0254779
0.0241976
0.0228906
0.021564
0.0202153
0.0188569
0.0175028
0.0161646
0.0148521
0.0135746
0.0123402
0.0111542
0.010023
0.0089503
0.00795209
0.00700427
0.00606138
0.00524555
0.00453778
0.0037525
0.00276558
0.00212504
0.00183834
0.00137056
0.000838901
0.000282073
-0.00028167
-0.000838467
-0.00137014
-0.00183792
-0.00212463
-0.00276518
-0.00375212
-0.00453742
-0.00524518
-0.006061
-0.0070039
-0.00795171
-0.00894993
-0.0100227
-0.0111539
-0.0123399
-0.0135742
-0.0148517
-0.0161643
-0.0175025
-0.0188566
-0.020215
-0.0215637
-0.0228904
-0.0241973
-0.0254776
-0.0267003
-0.0273434
-0.027385
-0.0273032
-0.0270887
-0.0267353
-0.0262398
-0.0256025
-0.0248266
-0.0239163
-0.0228771
-0.0217148
-0.0204356
-0.0190467
-0.0175555
-0.0159701
-0.014299
-0.0125513
-0.0107363
-0.00886374
-0.00694373
-0.00498653
-0.00300263
-0.00100265
0.000998874
0.00299113
0.0049669
0.00691525
0.00882549
0.010687
0.0124896
0.0142232
0.0158782
0.0174453
0.0189159
0.0202817
0.0215351
0.022669
0.0236767
0.0245523
0.0252898
0.0258837
0.0263289
0.0266246
0.0267752
0.0267894
0.0261883
0.0249907
0.0237127
0.022381
0.0210187
0.0196403
0.0182552
0.0168753
0.0155128
0.0141785
0.0128817
0.0116334
0.0104437
0.00931278
0.00825118
0.00724604
0.00637721
0.00558471
0.00459571
0.00393337
0.00359889
0.00305331
0.00242768
0.00191127
0.00151996
0.00111099
0.000676769
0.000227344
-0.000226931
-0.000676345
-0.00111058
-0.00151953
-0.00191087
-0.00242728
-0.00305292
-0.0035985
-0.003933
-0.00459535
-0.00558433
-0.00637685
-0.00724566
-0.00825082
-0.00931245
-0.0104435
-0.011633
-0.0128814
-0.0141782
-0.0155126
-0.016875
-0.0182549
-0.01964
-0.0210184
-0.0223807
-0.0237125
-0.0249904
-0.026188
-0.0267892
-0.026775
-0.0266244
-0.0263287
-0.0258835
-0.0252896
-0.0245521
-0.0236765
-0.0226688
-0.021535
-0.0202816
-0.0189158
-0.0174452
-0.0158781
-0.0142231
-0.0124895
-0.010687
-0.00882545
-0.00691523
-0.00496686
-0.0029911
-0.000998853
0.000994501
0.00297787
0.00494432
0.00688263
0.00878178
0.0106309
0.0124194
0.0141371
0.0157741
0.017321
0.0187688
0.0201091
0.0213342
0.0224367
0.0234103
0.0242488
0.024946
0.0254943
0.0258841
0.0261119
0.0261853
0.0256266
0.0244552
0.023187
0.0218471
0.0204597
0.0190464
0.0176244
0.0162079
0.0148102
0.0134437
0.0121177
0.0108388
0.00962094
0.00848656
0.007409
0.00643755
0.00542683
0.00475101
0.00438885
0.00381784
0.00330747
0.00289733
0.00245782
0.00200383
0.00159295
0.00123416
0.000886653
0.000535526
0.000179327
-0.000178904
-0.000535124
-0.000886251
-0.00123375
-0.00159255
-0.00200342
-0.00245743
-0.00289692
-0.00330708
-0.00381749
-0.00438848
-0.00475065
-0.00542645
-0.0064372
-0.00740866
-0.00848624
-0.00962062
-0.0108384
-0.0121174
-0.0134434
-0.0148099
-0.0162076
-0.0176242
-0.0190462
-0.0204594
-0.0218468
-0.0231867
-0.024455
-0.0256263
-0.0261851
-0.0261117
-0.0258838
-0.025494
-0.0249458
-0.0242486
-0.0234101
-0.0224366
-0.021334
-0.020109
-0.0187687
-0.0173209
-0.0157741
-0.0141371
-0.0124194
-0.0106308
-0.00878174
-0.0068826
-0.00494429
-0.00297786
-0.000994501
0.000989557
0.00296289
0.00491878
0.00684574
0.00873244
0.0105677
0.0123406
0.0140407
0.0156578
0.0171822
0.0186049
0.0199171
0.021111
0.0221793
0.0231157
0.0239147
0.0245712
0.0250762
0.0254076
0.0255549
0.0250443
0.023901
0.0226442
0.0213003
0.0198944
0.0184496
0.0169872
0.0155255
0.0140813
0.01267
0.0113053
0.00999504
0.00873297
0.00753501
0.00649255
0.00542791
0.00469882
0.00429648
0.00383546
0.00343939
0.00301577
0.00261545
0.00225476
0.00190318
0.00156044
0.00124262
0.000952552
0.000676811
0.000405739
0.000135409
-0.000135006
-0.000405337
-0.000676388
-0.00095215
-0.00124222
-0.00156003
-0.00190276
-0.00225435
-0.00261509
-0.00301538
-0.00343902
-0.0038351
-0.00429611
-0.00469847
-0.00542756
-0.00649222
-0.00753472
-0.00873267
-0.00999471
-0.011305
-0.0126697
-0.014081
-0.0155252
-0.0169869
-0.0184494
-0.0198942
-0.0213001
-0.0226439
-0.0239008
-0.025044
-0.0255547
-0.0254073
-0.025076
-0.024571
-0.0239145
-0.0231155
-0.0221791
-0.0211108
-0.0199169
-0.0186047
-0.0171821
-0.0156577
-0.0140406
-0.0123405
-0.0105676
-0.00873239
-0.00684573
-0.00491874
-0.00296287
-0.000989557
0.000984041
0.00294612
0.00489025
0.0068046
0.00867744
0.0104973
0.012253
0.0139336
0.0155288
0.0170286
0.0184236
0.0197049
0.0208646
0.0218952
0.0227905
0.0235463
0.0241624
0.0246388
0.0249156
0.0244712
0.0233591
0.022113
0.0207649
0.0193415
0.0178669
0.0163638
0.0148531
0.0133539
0.0118842
0.0104622
0.00910715
0.00783285
0.00658508
0.00532767
0.00456353
0.00414393
0.00366829
0.00327457
0.00290161
0.00255984
0.00222953
0.00191975
0.00163505
0.00136786
0.00111669
0.000885054
0.000672671
0.000473671
0.000282073
9.38407e-05
-9.34489e-05
-0.00028166
-0.000473269
-0.000672258
-0.000884652
-0.00111627
-0.00136744
-0.00163465
-0.00191936
-0.00222917
-0.00255949
-0.00290125
-0.0032742
-0.00366793
-0.00414358
-0.00456321
-0.00532735
-0.00658475
-0.00783252
-0.00910683
-0.0104619
-0.011884
-0.0133537
-0.0148528
-0.0163636
-0.0178666
-0.0193412
-0.0207647
-0.0221128
-0.0233589
-0.024471
-0.0249153
-0.0246386
-0.0241623
-0.0235461
-0.0227903
-0.021895
-0.0208644
-0.0197048
-0.0184234
-0.0170285
-0.0155287
-0.0139336
-0.0122529
-0.0104972
-0.0086774
-0.00680457
-0.00489024
-0.00294609
-0.000984019
0.000977931
0.00292759
0.00485876
0.0067592
0.00861681
0.0104198
0.0121566
0.013816
0.0153872
0.01686
0.0182247
0.0194724
0.0205945
0.0215834
0.022432
0.0231357
0.0237026
0.0242015
0.0239582
0.0228764
0.0216297
0.0202703
0.0188259
0.0173202
0.0157757
0.0142142
0.0126563
0.0111209
0.00962587
0.0081908
0.00684719
0.00567704
0.00449339
0.0036682
0.00333437
0.00297589
0.00261328
0.00228551
0.0019863
0.00171465
0.00146472
0.00123704
0.00103183
0.000846387
0.000679087
0.000529533
0.000396126
0.000275106
0.000162207
5.37337e-05
-5.33313e-05
-0.000161804
-0.000274714
-0.000395734
-0.000529131
-0.000678653
-0.000845974
-0.00103143
-0.00123665
-0.00146435
-0.00171428
-0.00198594
-0.00228517
-0.00261291
-0.00297554
-0.00333403
-0.00366788
-0.00449309
-0.00567671
-0.00684685
-0.00819048
-0.00962558
-0.0111207
-0.0126561
-0.0142139
-0.0157754
-0.0173199
-0.0188256
-0.02027
-0.0216295
-0.0228762
-0.023958
-0.0242013
-0.0237024
-0.0231355
-0.0224318
-0.0215832
-0.0205944
-0.0194722
-0.0182246
-0.0168599
-0.0153871
-0.0138159
-0.0121565
-0.0104198
-0.00861677
-0.00675915
-0.00485872
-0.00292757
-0.000977921
0.00097125
0.00290736
0.00482435
0.00670964
0.00855072
0.0103354
0.0120516
0.0136879
0.0152331
0.0166766
0.0180084
0.0192194
0.0203009
0.0212446
0.0220411
0.0226749
0.0231145
0.0233194
0.0226562
0.0212643
0.0198532
0.0183751
0.0168336
0.0152456
0.0136314
0.0120126
0.0104095
0.00884004
0.00731887
0.00585693
0.00445859
0.00359175
0.00309347
0.00257275
0.00219929
0.00187689
0.00158442
0.00132496
0.00109638
0.000896489
0.000722244
0.000572107
0.000444766
0.000338241
0.000250584
0.000180122
0.00012462
8.08811e-05
4.54327e-05
1.4749e-05
-1.43572e-05
-4.50198e-05
-8.05105e-05
-0.000124217
-0.00017973
-0.000250161
-0.000337829
-0.000444364
-0.000571715
-0.000721863
-0.000896119
-0.00109601
-0.0013246
-0.00158408
-0.00187654
-0.00219894
-0.00257244
-0.00309315
-0.00359141
-0.00445825
-0.00585661
-0.00731857
-0.00883976
-0.0104092
-0.0120123
-0.0136312
-0.0152453
-0.0168334
-0.0183749
-0.019853
-0.021264
-0.022656
-0.0233192
-0.0231143
-0.0226747
-0.0220409
-0.0212445
-0.0203007
-0.0192193
-0.0180083
-0.0166764
-0.015233
-0.0136878
-0.0120516
-0.0103353
-0.00855068
-0.00670961
-0.00482433
-0.00290733
-0.000971229
0.000964029
0.00288548
0.00478721
0.00665615
0.0084794
0.0102443
0.0119385
0.0135498
0.0150669
0.0164787
0.0177749
0.0189462
0.0199842
0.0208815
0.0216308
0.0222171
0.0225618
0.0221204
0.02091
0.0195052
0.0180024
0.0164261
0.0147944
0.0131269
0.0114448
0.0097706
0.00812588
0.00652857
0.0049901
0.00351566
0.00259259
0.00219774
0.00179355
0.00140661
0.00108602