/*--------------------------------*- C++ -*----------------------------------*\
  =========                 |
  \\      /  F ield         | OpenFOAM: The Open Source CFD Toolbox
   \\    /   O peration     | Website:  https://openfoam.org
    \\  /    A nd           | Version:  7
     \\/     M anipulation  |
\*---------------------------------------------------------------------------*/
FoamFile
{
    version     2.0;
    format      ascii;
    class       volScalarField;
    location    "0.043";
    object      gradTy;
}
// * * * * * * * * * * * * * * * * * * * * * * * * * * * * * * * * * * * * * //

dimensions      [0 -1 0 1 0 0 0];

internalField   nonuniform List<scalar> 
10000
(
1.56489e-05
1.56278e-05
1.56066e-05
1.56066e-05
1.5596e-05
1.55431e-05
1.55113e-05
1.54689e-05
1.54266e-05
1.53736e-05
1.53207e-05
1.52254e-05
1.51513e-05
1.50878e-05
1.50137e-05
1.49184e-05
1.48125e-05
1.4749e-05
1.46431e-05
1.45584e-05
1.44419e-05
1.43466e-05
1.42513e-05
1.4156e-05
1.40502e-05
1.39231e-05
1.38172e-05
1.37219e-05
1.36266e-05
1.35102e-05
1.34255e-05
1.33302e-05
1.32243e-05
1.3129e-05
1.30231e-05
1.29384e-05
1.28643e-05
1.28114e-05
1.27267e-05
1.26526e-05
1.25996e-05
1.25467e-05
1.24937e-05
1.24408e-05
1.23879e-05
1.23773e-05
1.23349e-05
1.23137e-05
1.23137e-05
1.23137e-05
1.23137e-05
1.22926e-05
1.22926e-05
1.23349e-05
1.23879e-05
1.23984e-05
1.24302e-05
1.25149e-05
1.25467e-05
1.25996e-05
1.26631e-05
1.27267e-05
1.27902e-05
1.28855e-05
1.2949e-05
1.30231e-05
1.31184e-05
1.32243e-05
1.3309e-05
1.34043e-05
1.35102e-05
1.36161e-05
1.37219e-05
1.38066e-05
1.39443e-05
1.4029e-05
1.41349e-05
1.42513e-05
1.43466e-05
1.44525e-05
1.45478e-05
1.46537e-05
1.47278e-05
1.48443e-05
1.49078e-05
1.50031e-05
1.5109e-05
1.51619e-05
1.5236e-05
1.53101e-05
1.53631e-05
1.5416e-05
1.54901e-05
1.54795e-05
1.55536e-05
1.55854e-05
1.56066e-05
1.56383e-05
1.56278e-05
1.56595e-05
4.68833e-05
4.68621e-05
4.68092e-05
4.67456e-05
4.66715e-05
4.65868e-05
4.64598e-05
4.63433e-05
4.61951e-05
4.60362e-05
4.58457e-05
4.56233e-05
4.5401e-05
4.51892e-05
4.49774e-05
4.46704e-05
4.44163e-05
4.41516e-05
4.38657e-05
4.35798e-05
4.32834e-05
4.29763e-05
4.26799e-05
4.23411e-05
4.20552e-05
4.17587e-05
4.14305e-05
4.10917e-05
4.08058e-05
4.04988e-05
4.01917e-05
3.99058e-05
3.96094e-05
3.93447e-05
3.90694e-05
3.88047e-05
3.85612e-05
3.83177e-05
3.81165e-05
3.79259e-05
3.77353e-05
3.75553e-05
3.73965e-05
3.728e-05
3.71636e-05
3.70577e-05
3.6973e-05
3.692e-05
3.68777e-05
3.68565e-05
3.68671e-05
3.68671e-05
3.69095e-05
3.69624e-05
3.70577e-05
3.7153e-05
3.72694e-05
3.73965e-05
3.75447e-05
3.77247e-05
3.79153e-05
3.81059e-05
3.83282e-05
3.85612e-05
3.88153e-05
3.90482e-05
3.93341e-05
3.95988e-05
3.98847e-05
4.01599e-05
4.04564e-05
4.07635e-05
4.10917e-05
4.14093e-05
4.17164e-05
4.20234e-05
4.23516e-05
4.26587e-05
4.29763e-05
4.32622e-05
4.35481e-05
4.38445e-05
4.41304e-05
4.44163e-05
4.46704e-05
4.49669e-05
4.51892e-05
4.5401e-05
4.56551e-05
4.58457e-05
4.60362e-05
4.62056e-05
4.63433e-05
4.64598e-05
4.65868e-05
4.66821e-05
4.67668e-05
4.68197e-05
4.68621e-05
4.68833e-05
7.7927e-05
7.78741e-05
7.78212e-05
7.77259e-05
7.75988e-05
7.74506e-05
7.72494e-05
7.70271e-05
7.67729e-05
7.64765e-05
7.61694e-05
7.58518e-05
7.54706e-05
7.51212e-05
7.47083e-05
7.42848e-05
7.38401e-05
7.33954e-05
7.29507e-05
7.24531e-05
7.19554e-05
7.14366e-05
7.0939e-05
7.04096e-05
6.98696e-05
6.93614e-05
6.88426e-05
6.83132e-05
6.77838e-05
6.72862e-05
6.67885e-05
6.63015e-05
6.58356e-05
6.53698e-05
6.49251e-05
6.45121e-05
6.40992e-05
6.37075e-05
6.33369e-05
6.30087e-05
6.27122e-05
6.24263e-05
6.21616e-05
6.19393e-05
6.17699e-05
6.15687e-05
6.14628e-05
6.13781e-05
6.1304e-05
6.12828e-05
6.12511e-05
6.1304e-05
6.13569e-05
6.14205e-05
6.15475e-05
6.17487e-05
6.19287e-05
6.21299e-05
6.24052e-05
6.26804e-05
6.29769e-05
6.33263e-05
6.36863e-05
6.40675e-05
6.4491e-05
6.49357e-05
6.53592e-05
6.5825e-05
6.63015e-05
6.67885e-05
6.72544e-05
6.77626e-05
6.82814e-05
6.88003e-05
6.93191e-05
6.9859e-05
7.03779e-05
7.08755e-05
7.14049e-05
7.19025e-05
7.24107e-05
7.28766e-05
7.33531e-05
7.38083e-05
7.42742e-05
7.46871e-05
7.50789e-05
7.54812e-05
7.58412e-05
7.618e-05
7.64765e-05
7.67941e-05
7.70165e-05
7.72706e-05
7.74294e-05
7.75882e-05
7.77364e-05
7.78423e-05
7.78953e-05
7.79059e-05
0.000108664
0.000108621
0.000108537
0.000108388
0.000108219
0.000107976
0.000107711
0.000107393
0.000107033
0.000106652
0.000106207
0.000105752
0.000105254
0.000104714
0.000104164
0.000103592
0.000102978
0.000102343
0.000101697
0.00010103
0.000100342
9.96428e-05
9.89123e-05
9.81817e-05
9.74617e-05
9.67206e-05
9.59794e-05
9.52489e-05
9.45289e-05
9.38195e-05
9.31207e-05
9.24431e-05
9.17972e-05
9.11407e-05
9.05161e-05
8.99231e-05
8.93726e-05
8.88538e-05
8.83349e-05
8.78585e-05
8.74456e-05
8.70538e-05
8.67044e-05
8.63868e-05
8.61009e-05
8.58997e-05
8.56986e-05
8.55397e-05
8.54656e-05
8.54127e-05
8.54233e-05
8.54762e-05
8.55503e-05
8.57091e-05
8.5868e-05
8.60691e-05
8.6355e-05
8.66726e-05
8.70326e-05
8.74244e-05
8.78585e-05
8.83032e-05
8.88326e-05
8.93832e-05
8.99443e-05
9.05266e-05
9.11513e-05
9.17654e-05
9.24219e-05
9.31101e-05
9.38089e-05
9.45077e-05
9.52065e-05
9.59582e-05
9.66888e-05
9.73982e-05
9.81182e-05
9.88382e-05
9.95581e-05
0.000100268
0.000100956
0.000101655
0.000102343
0.000102989
0.000103571
0.000104153
0.000104714
0.000105265
0.000105752
0.000106229
0.000106652
0.000107033
0.000107404
0.0001077
0.000107965
0.000108198
0.000108388
0.000108505
0.0001086
0.000108643
0.000138956
0.000138903
0.000138797
0.000138617
0.000138373
0.000138088
0.000137749
0.000137325
0.000136881
0.000136383
0.000135843
0.000135239
0.000134625
0.000133948
0.000133217
0.000132497
0.000131714
0.000130898
0.00013003
0.000129183
0.000128294
0.000127394
0.000126451
0.000125551
0.00012462
0.000123677
0.000122735
0.000121803
0.000120903
0.000119972
0.000119082
0.000118225
0.000117378
0.000116552
0.000115758
0.000115006
0.000114286
0.000113608
0.000112973
0.00011238
0.00011184
0.000111321
0.000110887
0.000110474
0.000110104
0.00010985
0.000109606
0.000109437
0.00010931
0.000109225
0.000109246
0.000109299
0.000109415
0.000109617
0.000109839
0.000110114
0.000110453
0.000110877
0.000111321
0.000111808
0.00011238
0.000112962
0.000113619
0.000114297
0.000115006
0.000115768
0.000116562
0.000117367
0.000118214
0.000119072
0.000119961
0.000120882
0.000121793
0.000122703
0.000123646
0.000124567
0.000125499
0.000126441
0.00012733
0.000128251
0.00012913
0.00013002
0.000130867
0.000131682
0.000132476
0.000133217
0.000133948
0.000134625
0.000135261
0.000135853
0.000136415
0.000136902
0.000137346
0.000137738
0.000138088
0.000138352
0.000138585
0.000138755
0.000138903
0.000138945
0.000168718
0.000168655
0.000168507
0.000168295
0.000167998
0.00016766
0.000167247
0.00016677
0.00016623
0.000165584
0.000164938
0.000164219
0.000163456
0.00016263
0.000161762
0.000160852
0.00015993
0.000158925
0.000157898
0.000156839
0.000155769
0.000154658
0.000153578
0.000152445
0.000151291
0.000150158
0.000149025
0.000147913
0.00014678
0.00014569
0.00014461
0.00014354
0.000142503
0.000141507
0.000140576
0.000139644
0.000138776
0.000137918
0.000137145
0.000136425
0.000135748
0.000135155
0.000134604
0.000134106
0.000133715
0.000133355
0.000133101
0.000132878
0.00013273
0.000132635
0.000132635
0.000132688
0.000132857
0.000133058
0.000133365
0.000133747
0.000134128
0.000134604
0.000135165
0.000135779
0.000136436
0.000137177
0.000137939
0.000138765
0.000139644
0.000140565
0.000141529
0.000142534
0.00014354
0.000144578
0.000145679
0.000146748
0.000147881
0.000148993
0.000150126
0.000151259
0.000152402
0.000153514
0.000154626
0.000155716
0.000156807
0.000157866
0.000158882
0.000159856
0.00016082
0.000161752
0.00016263
0.000163456
0.000164229
0.000164938
0.000165595
0.00016622
0.00016677
0.000167225
0.000167649
0.000167988
0.000168263
0.000168496
0.000168623
0.000168729
0.000197803
0.000197719
0.000197539
0.000197306
0.000196967
0.000196543
0.000196067
0.000195516
0.000194871
0.000194172
0.000193388
0.00019252
0.000191631
0.000190646
0.000189661
0.000188571
0.000187459
0.000186284
0.000185087
0.00018387
0.00018261
0.000181318
0.000180016
0.000178692
0.000177369
0.000176045
0.000174701
0.000173388
0.000172075
0.000170804
0.000169544
0.000168295
0.000167098
0.000165923
0.000164769
0.0001637
0.000162694
0.00016172
0.000160809
0.000159962
0.000159147
0.000158459
0.000157802
0.000157252
0.000156765
0.000156341
0.000155992
0.000155769
0.000155568
0.000155505
0.000155494
0.000155589
0.000155748
0.000156002
0.000156362
0.000156765
0.000157252
0.000157813
0.000158448
0.000159179
0.000159952
0.00016082
0.000161709
0.000162694
0.00016371
0.000164801
0.000165923
0.000167077
0.000168284
0.000169502
0.000170772
0.000172064
0.000173377
0.000174701
0.000176003
0.000177348
0.000178671
0.000180005
0.000181297
0.000182589
0.000183859
0.000185077
0.000186273
0.000187438
0.00018856
0.000189619
0.000190646
0.00019162
0.000192509
0.000193356
0.000194151
0.00019486
0.000195495
0.000196067
0.000196554
0.000196978
0.000197295
0.000197539
0.000197708
0.000197793
0.000226094
0.000225999
0.000225808
0.000225533
0.000225163
0.000224675
0.000224104
0.0002235
0.000222748
0.000221965
0.000221054
0.000220091
0.000219043
0.000217952
0.000216777
0.000215549
0.000214246
0.000212923
0.000211568
0.00021017
0.000208698
0.000207269
0.000205744
0.000204241
0.000202748
0.000201234
0.000199709
0.000198206
0.000196702
0.000195209
0.00019378
0.000192372
0.000190985
0.000189651
0.000188359
0.000187152
0.000185945
0.000184844
0.000183806
0.000182843
0.000181943
0.000181117
0.000180376
0.000179719
0.000179158
0.000178682
0.00017829
0.000178015
0.000177835
0.000177739
0.000177739
0.000177835
0.000178046
0.000178332
0.000178692
0.000179158
0.000179751
0.000180397
0.000181138
0.000181943
0.000182864
0.000183796
0.000184833
0.000185945
0.00018711
0.000188338
0.000189619
0.000190953
0.00019234
0.000193769
0.000195199
0.000196702
0.000198174
0.000199709
0.000201202
0.000202727
0.000204241
0.000205744
0.000207237
0.000208709
0.000210138
0.000211546
0.000212923
0.000214257
0.000215538
0.000216756
0.000217931
0.000219053
0.000220091
0.000221044
0.000221944
0.000222738
0.000223479
0.000224136
0.000224686
0.000225152
0.000225533
0.000225819
0.000225999
0.000226094
0.000253485
0.00025339
0.000253157
0.000252839
0.000252416
0.000251939
0.000251304
0.000250552
0.000249748
0.000248837
0.000247863
0.000246762
0.000245587
0.000244348
0.000243014
0.000241669
0.000240229
0.000238747
0.000237201
0.000235602
0.000234014
0.000232362
0.0002307
0.000229006
0.000227312
0.000225586
0.000223924
0.000222209
0.000220536
0.000218894
0.000217275
0.000215697
0.00021413
0.000212637
0.000211208
0.00020981
0.000208497
0.000207269
0.000206062
0.000204971
0.000203976
0.000203066
0.000202229
0.000201488
0.000200863
0.000200323
0.000199921
0.000199582
0.000199381
0.000199286
0.000199275
0.000199413
0.000199603
0.0001999
0.000200334
0.000200884
0.00020152
0.00020225
0.000203076
0.000203976
0.000204971
0.000206083
0.000207237
0.000208465
0.000209799
0.000211165
0.000212605
0.000214119
0.000215665
0.000217243
0.000218863
0.000220514
0.000222198
0.00022386
0.000225586
0.00022728
0.000228985
0.000230679
0.000232352
0.000234014
0.000235613
0.000237212
0.000238736
0.000240219
0.000241648
0.000243056
0.000244348
0.000245576
0.000246741
0.000247831
0.000248848
0.000249758
0.000250574
0.000251304
0.000251918
0.000252426
0.000252871
0.000253189
0.0002534
0.000253496
0.000279902
0.000279786
0.000279553
0.000279182
0.000278727
0.000278155
0.000277477
0.000276652
0.000275773
0.000274767
0.000273645
0.000272469
0.000271178
0.000269791
0.000268351
0.000266815
0.000265259
0.000263618
0.000261903
0.000260166
0.000258387
0.000256556
0.000254713
0.00025285
0.000250976
0.000249091
0.000247217
0.000245354
0.000243511
0.00024169
0.00023989
0.000238133
0.000236428
0.000234776
0.000233178
0.000231642
0.000230202
0.000228826
0.000227545
0.000226317
0.000225226
0.000224188
0.000223278
0.000222494
0.000221774
0.000221203
0.000220737
0.000220356
0.000220154
0.000220038
0.000220027
0.000220144
0.000220356
0.000220726
0.000221224
0.000221796
0.000222494
0.000223299
0.00022421
0.000225226
0.000226327
0.000227545
0.000228826
0.000230192
0.000231621
0.000233156
0.000234745
0.000236396
0.000238133
0.000239869
0.00024168
0.00024348
0.000245333
0.000247207
0.00024907
0.000250955
0.000252829
0.000254703
0.000256556
0.000258377
0.000260177
0.000261924
0.000263618
0.000265259
0.000266858
0.000268361
0.000269822
0.000271167
0.000272448
0.000273655
0.000274756
0.000275762
0.000276662
0.000277467
0.000278134
0.000278748
0.000279203
0.000279574
0.000279796
0.000279923
0.000305175
0.000305048
0.000304805
0.000304413
0.000303905
0.00030327
0.000302539
0.000301671
0.000300676
0.000299585
0.000298378
0.000297076
0.000295667
0.000294185
0.000292618
0.000290956
0.000289219
0.000287409
0.000285556
0.00028364
0.000281691
0.000279711
0.0002777
0.000275688
0.000273613
0.000271569
0.000269536
0.000267504
0.000265481
0.000263501
0.000261543
0.000259647
0.000257773
0.000255952
0.000254237
0.000252585
0.000250976
0.000249472
0.000248075
0.000246762
0.000245534
0.000244443
0.000243448
0.000242569
0.000241817
0.000241161
0.000240684
0.000240293
0.000240039
0.000239911
0.00023989
0.000239996
0.000240293
0.000240674
0.000241182
0.000241828
0.00024258
0.000243458
0.000244454
0.000245576
0.000246772
0.000248075
0.000249504
0.000250986
0.000252564
0.000254226
0.000255942
0.000257752
0.000259594
0.000261553
0.000263501
0.000265492
0.000267504
0.000269558
0.000271612
0.000273655
0.000275688
0.00027771
0.000279743
0.000281713
0.000283671
0.000285567
0.000287451
0.00028923
0.000290966
0.000292618
0.000294185
0.000295699
0.000297086
0.000298389
0.000299585
0.000300686
0.00030166
0.000302528
0.000303301
0.000303947
0.000304434
0.000304815
0.000305101
0.000305218
0.000329273
0.000329125
0.00032885
0.000328458
0.000327897
0.000327219
0.000326394
0.000325483
0.000324403
0.000323228
0.000321947
0.000320538
0.000319014
0.000317426
0.00031571
0.00031391
0.000312026
0.000310067
0.000308076
0.000306012
0.000303915
0.000301777
0.000299617
0.000297414
0.000295202
0.000292999
0.000290808
0.000288616
0.000286435
0.000284285
0.000282157
0.000280082
0.000278102
0.000276165
0.00027429
0.00027249
0.000270796
0.000269166
0.000267641
0.000266233
0.00026492
0.000263713
0.000262654
0.000261691
0.000260886
0.000260198
0.000259637
0.000259234
0.000258959
0.000258811
0.000258822
0.000258959
0.000259224
0.000259669
0.000260219
0.000260907
0.000261733
0.000262686
0.000263745
0.000264931
0.000266244
0.000267641
0.000269166
0.000270796
0.000272512
0.00027429
0.000276165
0.000278102
0.000280103
0.000282147
0.000284264
0.000286414
0.000288605
0.000290786
0.00029302
0.000295244
0.000297457
0.00029968
0.00030184
0.000303958
0.000306065
0.000308119
0.00031012
0.000312079
0.000313932
0.00031571
0.000317394
0.000319024
0.000320538
0.000321936
0.000323238
0.000324424
0.000325494
0.000326436
0.000327241
0.000327918
0.000328469
0.000328882
0.000329157
0.000329305
0.000352048
0.00035191
0.000351614
0.000351148
0.000350576
0.000349867
0.000348978
0.000348003
0.00034686
0.000345589
0.000344181
0.000342699
0.000341111
0.000339374
0.000337543
0.000335637
0.000333615
0.000331539
0.000329401
0.000327198
0.000324932
0.000322645
0.000320316
0.000317976
0.000315626
0.000313275
0.000310903
0.000308564
0.000306245
0.000303937
0.000301692
0.000299458
0.00029733
0.000295244
0.000293243
0.000291326
0.000289495
0.000287758
0.000286128
0.000284614
0.000283227
0.000281946
0.000280813
0.000279796
0.000278917
0.000278187
0.000277573
0.00027716
0.000276842
0.000276715
0.000276715
0.000276853
0.000277149
0.000277594
0.000278187
0.000278928
0.000279828
0.000280823
0.000281977
0.000283227
0.000284635
0.000286159
0.000287779
0.000289516
0.000291348
0.000293253
0.000295265
0.000297351
0.000299468
0.000301681
0.000303937
0.000306224
0.000308564
0.000310893
0.000313275
0.000315636
0.000318008
0.000320369
0.000322688
0.000324985
0.000327241
0.000329443
0.000331592
0.000333657
0.000335637
0.000337574
0.000339385
0.000341068
0.000342699
0.000344213
0.000345579
0.000346828
0.000347972
0.000348988
0.000349867
0.000350598
0.00035119
0.000351625
0.00035191
0.000352059
0.000373457
0.000373277
0.00037298
0.000372525
0.000371879
0.000371085
0.000370206
0.000369116
0.00036793
0.000366564
0.000365103
0.000363494
0.00036181
0.000359978
0.00035803
0.000356008
0.000353869
0.000351688
0.000349401
0.000347082
0.0003447
0.000342244
0.000339766
0.000337289
0.0003348
0.00033228
0.000329771
0.000327283
0.000324805
0.00032237
0.000319967
0.000317659
0.000315393
0.000313169
0.00031102
0.000308987
0.000307049
0.000305207
0.000303502
0.000301904
0.0003004
0.000299087
0.000297859
0.000296779
0.000295858
0.000295085
0.00029446
0.000293973
0.000293677
0.000293486
0.000293497
0.000293666
0.000293984
0.00029445
0.000295075
0.000295847
0.000296779
0.00029787
0.000299056
0.000300443
0.000301914
0.000303534
0.000305271
0.000307102
0.000309029
0.000311062
0.00031319
0.000315382
0.00031769
0.00032003
0.000322413
0.000324858
0.000327294
0.000329813
0.000332302
0.000334822
0.000337331
0.000339808
0.000342265
0.000344732
0.000347125
0.000349454
0.00035172
0.000353901
0.000356029
0.000358041
0.000359989
0.000361789
0.000363515
0.000365114
0.000366575
0.00036793
0.000369126
0.000370185
0.000371138
0.000371879
0.000372515
0.000373002
0.000373319
0.000373467
0.000393341
0.000393182
0.000392864
0.000392367
0.000391721
0.000390885
0.00038991
0.000388778
0.000387496
0.000386088
0.000384564
0.00038288
0.00038107
0.000379153
0.00037711
0.000374971
0.000372758
0.000370439
0.000368036
0.000365579
0.000363049
0.000360487
0.000357903
0.000355246
0.000352609
0.000349973
0.000347315
0.000344679
0.000342095
0.000339523
0.000337013
0.000334557
0.000332143
0.000329845
0.00032759
0.000325451
0.000323397
0.000321491
0.00031966
0.000317976
0.00031643
0.000315001
0.00031372
0.000312608
0.000311613
0.000310787
0.000310131
0.000309633
0.000309294
0.000309114
0.000309135
0.000309305
0.000309643
0.000310141
0.000310776
0.000311602
0.000312566
0.00031373
0.000315022
0.000316441
0.000317997
0.00031967
0.000321502
0.00032344
0.000325472
0.000327632
0.000329877
0.000332206
0.000334599
0.000337077
0.000339565
0.000342138
0.000344753
0.000347368
0.000349994
0.000352652
0.000355309
0.000357924
0.000360529
0.000363102
0.000365632
0.000368078
0.000370471
0.000372779
0.000375013
0.000377131
0.000379164
0.000381101
0.000382901
0.000384585
0.000386131
0.000387518
0.000388809
0.000389942
0.000390895
0.000391732
0.000392388
0.000392864
0.000393203
0.000393362
0.0004117
0.000411552
0.000411182
0.000410673
0.000409996
0.000409138
0.00040809
0.000406915
0.000405602
0.000404119
0.000402499
0.000400742
0.000398815
0.000396835
0.000394717
0.000392483
0.000390165
0.000387729
0.000385199
0.000382626
0.00038
0.000377311
0.000374611
0.000371837
0.000369063
0.000366289
0.000363525
0.000360762
0.000358041
0.000355362
0.000352736
0.000350163
0.000347612
0.000345198
0.000342868
0.000340603
0.000338474
0.000336452
0.000334589
0.000332789
0.000331148
0.000329655
0.000328342
0.000327145
0.000326108
0.000325261
0.000324572
0.000324054
0.000323683
0.000323524
0.000323535
0.000323704
0.000324054
0.000324572
0.000325282
0.000326139
0.000327166
0.000328331
0.000329676
0.000331158
0.00033281
0.000334578
0.000336452
0.000338485
0.000340655
0.000342921
0.000345229
0.000347675
0.000350195
0.000352757
0.000355404
0.000358094
0.000360815
0.000363568
0.000366342
0.000369105
0.000371869
0.000374611
0.000377353
0.000380032
0.000382658
0.000385241
0.000387751
0.000390186
0.000392494
0.000394728
0.000396856
0.0003989
0.000400752
0.00040251
0.000404141
0.000405644
0.000406957
0.000408122
0.000409138
0.000409996
0.000410673
0.000411192
0.000411552
0.000411732
0.000428429
0.000428228
0.000427879
0.000427318
0.000426629
0.000425751
0.000424692
0.000423453
0.000422066
0.000420531
0.000418815
0.000417005
0.000415057
0.000412929
0.000410716
0.000408386
0.000405962
0.000403463
0.000400858
0.000398169
0.000395427
0.000392642
0.000389783
0.000386956
0.000384066
0.000381175
0.000378296
0.000375416
0.000372578
0.000369783
0.000367041
0.000364341
0.000361747
0.000359205
0.00035677
0.000354441
0.000352217
0.00035011
0.00034812
0.000346288
0.000344584
0.000343017
0.00034163
0.000340391
0.000339311
0.000338432
0.000337723
0.000337172
0.000336812
0.000336632
0.000336632
0.000336844
0.000337183
0.000337723
0.000338443
0.000339353
0.000340412
0.000341619
0.000343017
0.000344584
0.000346278
0.000348141
0.00035011
0.000352207
0.000354441
0.000356781
0.000359237
0.000361757
0.000364362
0.000367062
0.000369825
0.000372599
0.000375437
0.000378306
0.000381175
0.000384077
0.000386946
0.000389805
0.000392632
0.000395427
0.000398169
0.000400869
0.000403463
0.000405983
0.000408429
0.000410758
0.000412971
0.000415067
0.000417015
0.000418847
0.000420562
0.000422087
0.000423485
0.000424702
0.000425751
0.000426629
0.000427349
0.000427879
0.00042827
0.000428461
0.000443443
0.000443263
0.000442892
0.000442321
0.000441579
0.000440648
0.000439557
0.000438308
0.000436889
0.00043528
0.000433533
0.000431637
0.000429615
0.000427402
0.000425136
0.000422722
0.000420213
0.000417598
0.00041493
0.000412124
0.000409297
0.000406385
0.000403463
0.00040052
0.000397523
0.000394527
0.000391541
0.000388576
0.000385612
0.000382721
0.000379884
0.00037712
0.000374431
0.000371795
0.000369285
0.000366861
0.000364563
0.000362382
0.000360317
0.000358422
0.000356643
0.000355044
0.000353573
0.000352313
0.000351243
0.000350312
0.000349539
0.000348999
0.000348607
0.000348459
0.000348438
0.000348607
0.000349009
0.000349549
0.000350301
0.000351233
0.000352323
0.000353604
0.000355066
0.000356643
0.000358422
0.000360328
0.000362382
0.000364563
0.000366892
0.000369296
0.000371816
0.000374442
0.000377141
0.000379926
0.000382764
0.000385675
0.000388608
0.000391573
0.000394537
0.000397534
0.000400498
0.000403463
0.000406406
0.000409318
0.000412124
0.000414909
0.000417619
0.000420234
0.000422754
0.000425168
0.000427466
0.000429615
0.000431669
0.000433564
0.000435311
0.00043691
0.00043834
0.00043961
0.000440711
0.000441611
0.000442363
0.000442935
0.000443295
0.000443485
0.00045671
0.000456508
0.000456138
0.000455566
0.000454793
0.00045384
0.000452707
0.000451416
0.000449933
0.000448303
0.000446524
0.000444576
0.000442448
0.000440235
0.000437863
0.000435375
0.00043277
0.00043007
0.000427296
0.000424448
0.000421526
0.000418551
0.000415512
0.000412463
0.000409371
0.000406311
0.000403241
0.000400191
0.000397174
0.000394188
0.000391266
0.000388386
0.000385612
0.000382933
0.000380318
0.000377808
0.000375426
0.000373182
0.000371085
0.000369126
0.000367305
0.000365664
0.000364161
0.000362869
0.000361715
0.000360751
0.000359989
0.000359417
0.000359047
0.000358824
0.000358824
0.000359026
0.000359428
0.000359989
0.000360783
0.000361704
0.000362837
0.000364171
0.000365654
0.000367305
0.000369116
0.000371085
0.000373192
0.000375479
0.00037784
0.000380339
0.000382944
0.000385622
0.000388418
0.000391276
0.000394199
0.000397174
0.000400202
0.000403251
0.000406353
0.000409413
0.000412484
0.000415533
0.000418572
0.000421547
0.00042448
0.000427318
0.00043007
0.000432791
0.000435396
0.000437884
0.000440245
0.000442469
0.000444597
0.000446545
0.000448324
0.000449986
0.000451458
0.00045275
0.000453872
0.000454846
0.000455608
0.00045618
0.000456572
0.000456752
0.000468187
0.000467986
0.000467583
0.000467033
0.000466228
0.000465275
0.000464121
0.000462776
0.000461241
0.000459558
0.000457726
0.000455704
0.000453544
0.000451267
0.000448832
0.000446291
0.000443612
0.000440881
0.000438043
0.0004351
0.000432093
0.000429033
0.000425941
0.000422796
0.000419662
0.000416507
0.000413363
0.00041025
0.000407137
0.000404077
0.00040106
0.000398127
0.000395268
0.000392494
0.000389826
0.000387285
0.000384849
0.000382531
0.000380371
0.000378338
0.000376517
0.000374801
0.000373287
0.000371932
0.000370767
0.000369793
0.000369031
0.000368428
0.000368036
0.000367824
0.000367813
0.000368015
0.000368406
0.000369031
0.000369783
0.000370789
0.000371964
0.000373287
0.000374812
0.000376517
0.000378359
0.000380381
0.000382573
0.00038486
0.000387295
0.000389858
0.000392536
0.0003953
0.000398137
0.000401081
0.000404088
0.000407148
0.00041025
0.000413394
0.00041656
0.000419705
0.00042286
0.000425983
0.000429075
0.000432124
0.000435142
0.000438033
0.000440891
0.000443655
0.000446333
0.000448885
0.000451299
0.000453586
0.000455746
0.000457758
0.0004596
0.000461273
0.000462798
0.000464111
0.000465296
0.00046627
0.000467075
0.000467647
0.000468017
0.000468219
0.000477811
0.00047761
0.000477197
0.000476594
0.000475831
0.000474815
0.000473629
0.000472242
0.000470717
0.000469013
0.000467117
0.000465063
0.000462861
0.000460511
0.000458033
0.000455428
0.000452739
0.000449912
0.000447011
0.000444046
0.000440987
0.000437853
0.000434666
0.000431479
0.00042826
0.000425041
0.000421812
0.000418625
0.00041547
0.000412357
0.000409276
0.000406269
0.000403347
0.00040053
0.000397841
0.000395226
0.000392759
0.000390397
0.000388153
0.000386088
0.000384193
0.000382467
0.000380921
0.000379534
0.00037837
0.000377385
0.00037658
0.000375966
0.000375564
0.000375363
0.000375373
0.000375564
0.000375956
0.000376559
0.000377374
0.000378348
0.000379555
0.000380942
0.000382488
0.000384204
0.00038612
0.000388174
0.000390376
0.000392737
0.000395215
0.00039782
0.000400562
0.000403378
0.000406322
0.000409307
0.000412357
0.000415491
0.000418646
0.000421844
0.000425083
0.000428292
0.00043151
0.000434729
0.000437863
0.000440976
0.000444025
0.000447032
0.000449933
0.00045276
0.000455481
0.000458075
0.000460553
0.000462882
0.000465085
0.000467139
0.000469023
0.000470749
0.000472306
0.000473671
0.000474857
0.000475863
0.000476647
0.00047725
0.000477621
0.000477832
0.00048554
0.000485329
0.000484905
0.000484323
0.000483497
0.000482502
0.000481305
0.000479918
0.000478341
0.000476625
0.000474677
0.000472591
0.000470357
0.000467954
0.000465434
0.000462808
0.000460045
0.000457197
0.000454211
0.000451183
0.000448091
0.000444936
0.000441696
0.000438445
0.000435184
0.000431902
0.000428641
0.00042538
0.000422172
0.000418985
0.000415883
0.000412833
0.000409869
0.00040701
0.000404236
0.000401599
0.000399048
0.000396655
0.000394389
0.000392324
0.000390397
0.00038864
0.000387083
0.000385686
0.000384468
0.000383452
0.000382626
0.000382012
0.00038161
0.000381408
0.000381408
0.00038161
0.000382022
0.000382626
0.000383431
0.000384447
0.000385644
0.000387062
0.00038865
0.000390408
0.000392324
0.000394431
0.000396676
0.000399058
0.000401589
0.000404268
0.00040701
0.000409879
0.000412844
0.000415904
0.000419027
0.000422193
0.000425422
0.000428683
0.000431934
0.000435227
0.000438488
0.000441728
0.000444946
0.000448102
0.000451214
0.000454264
0.000457239
0.000460077
0.000462808
0.000465466
0.000467965
0.000470368
0.000472602
0.000474709
0.000476625
0.000478362
0.000479929
0.000481348
0.000482544
0.000483539
0.000484333
0.000484969
0.000485382
0.000485572
0.000491343
0.000491141
0.000490739
0.000490114
0.000489299
0.000488283
0.000487055
0.000485668
0.000484069
0.000482279
0.000480352
0.000478245
0.000475969
0.000473555
0.000471014
0.000468335
0.000465561
0.00046266
0.000459674
0.000456593
0.000453449
0.00045024
0.000447
0.000443708
0.000440383
0.000437069
0.000433734
0.000430462
0.00042719
0.000423972
0.000420806
0.000417735
0.00041476
0.000411838
0.000409043
0.000406353
0.000403791
0.000401367
0.000399122
0.000397004
0.000395056
0.000393267
0.000391689
0.00039026
0.000389063
0.000388026
0.0003872
0.000386565
0.000386152
0.000385929
0.000385919
0.000386152
0.000386554
0.000387179
0.000387994
0.000389032
0.00039026
0.000391668
0.000393256
0.000395046
0.000397015
0.000399122
0.000401398
0.000403823
0.000406375
0.000409053
0.000411859
0.00041476
0.000417788
0.000420848
0.000424035
0.000427254
0.000430494
0.000433797
0.000437069
0.000440394
0.000443708
0.00044699
0.00045024
0.000453459
0.000456604
0.000459685
0.000462681
0.000465572
0.000468367
0.000471046
0.000473587
0.00047599
0.000478277
0.000480363
0.000482343
0.000484111
0.000485678
0.000487097
0.000488314
0.00048931
0.000490136
0.000490771
0.000491184
0.000491396
0.000495228
0.000495027
0.000494635
0.000493979
0.000493153
0.000492116
0.000490898
0.000489479
0.000487859
0.00048608
0.000484111
0.000481983
0.000479717
0.000477292
0.00047473
0.000472009
0.000469214
0.000466281
0.000463285
0.000460172
0.000456985
0.000453777
0.000450505
0.000447149
0.000443835
0.000440468
0.000437143
0.000433829
0.000430526
0.000427275
0.00042412
0.000421018
0.000418011
0.000415078
0.00041224
0.00040953
0.000406968
0.000404522
0.000402224
0.000400096
0.000398127
0.000396337
0.000394728
0.000393309
0.00039207
0.000391043
0.000390186
0.000389582
0.000389169
0.000388947
0.000388958
0.000389148
0.000389561
0.000390196
0.000391022
0.00039207
0.000393299
0.000394739
0.000396337
0.000398127
0.000400107
0.000402214
0.000404522
0.000406957
0.000409551
0.000412251
0.000415099
0.000418043
0.000421049
0.000424162
0.000427349
0.0004306
0.000433903
0.000437175
0.000440531
0.000443856
0.000447191
0.000450494
0.000453777
0.000457017
0.000460193
0.000463285
0.000466302
0.000469224
0.000472041
0.00047473
0.000477314
0.000479759
0.000482046
0.000484175
0.000486112
0.000487912
0.000489511
0.00049094
0.000492137
0.000493174
0.000494032
0.000494635
0.000495038
0.00049525
0.000497155
0.000496933
0.000496531
0.000495906
0.00049508
0.000494021
0.000492793
0.000491353
0.000489754
0.000487965
0.000486017
0.000483857
0.000481581
0.000479167
0.000476594
0.000473873
0.000471056
0.000468123
0.000465085
0.000461951
0.000458764
0.000455503
0.00045221
0.000448896
0.000445561
0.000442194
0.000438827
0.000435491
0.000432199
0.000428948
0.000425761
0.000422648
0.000419588
0.000416634
0.000413829
0.000411107
0.000408513
0.000406089
0.000403759
0.00040161
0.000399641
0.000397851
0.000396221
0.000394802
0.000393563
0.000392504
0.000391679
0.000391043
0.000390609
0.000390419
0.00039044
0.00039063
0.000391065
0.000391668
0.000392536
0.000393563
0.000394791
0.000396231
0.000397851
0.000399662
0.000401621
0.000403759
0.000406068