/*--------------------------------*- C++ -*----------------------------------*\
  =========                 |
  \\      /  F ield         | OpenFOAM: The Open Source CFD Toolbox
   \\    /   O peration     | Website:  https://openfoam.org
    \\  /    A nd           | Version:  7
     \\/     M anipulation  |
\*---------------------------------------------------------------------------*/
FoamFile
{
    version     2.0;
    format      ascii;
    class       volScalarField;
    location    "0.043";
    object      gradTx;
}
// * * * * * * * * * * * * * * * * * * * * * * * * * * * * * * * * * * * * * //

dimensions      [0 -1 0 1 0 0 0];

internalField   nonuniform List<scalar> 
10000
(
1.56489e-05
4.68939e-05
7.7927e-05
0.000108653
0.000138945
0.000168708
0.000197793
0.000226115
0.000253496
0.000279902
0.000305218
0.000329305
0.000352048
0.000373425
0.000393362
0.000411711
0.000428419
0.000443454
0.000456741
0.000468208
0.000477843
0.000485572
0.000491374
0.00049526
0.000497177
0.000497134
0.000495154
0.000491194
0.000485297
0.000477472
0.000467753
0.000456233
0.000442924
0.000427847
0.000411065
0.000392684
0.000372747
0.000351381
0.000328606
0.00030453
0.000279256
0.000252913
0.000225565
0.000197327
0.000168295
0.000138606
0.000108388
7.77576e-05
4.6788e-05
1.56807e-05
-1.55113e-05
-4.66503e-05
-7.762e-05
-0.000108304
-0.000138543
-0.000168178
-0.00019721
-0.000225448
-0.000252797
-0.00027915
-0.000304402
-0.000328469
-0.000351254
-0.000372663
-0.000392568
-0.000410938
-0.00042772
-0.000442786
-0.000456095
-0.000467636
-0.000477356
-0.00048517
-0.000491078
-0.000495027
-0.000497028
-0.000497081
-0.000495175
-0.0004913
-0.000485498
-0.000477758
-0.000468166
-0.000456688
-0.000443411
-0.000428398
-0.000411658
-0.00039332
-0.000373414
-0.000352048
-0.000329263
-0.000305165
-0.000279891
-0.000253506
-0.000226052
-0.000197772
-0.000168708
-0.000138966
-0.000108664
-7.7927e-05
-4.68833e-05
-1.56383e-05
1.56383e-05
4.68515e-05
7.78847e-05
0.000108632
0.000138882
0.000168644
0.000197719
0.00022602
0.0002534
0.000279786
0.000305059
0.000329146
0.00035191
0.000373277
0.000393193
0.000411531
0.000428239
0.000443274
0.000456551
0.000468017
0.000477642
0.000485371
0.000491184
0.000495048
0.000496975
0.000496912
0.000494943
0.000490993
0.000485085
0.000477282
0.000467562
0.000456032
0.000442712
0.000427667
0.000410885
0.000392515
0.00037261
0.000351243
0.000328448
0.000304402
0.00027914
0.000252818
0.00022547
0.000197232
0.000168231
0.000138553
0.000108314
7.77259e-05
4.6788e-05
1.56807e-05
-1.55325e-05
-4.66609e-05
-7.75776e-05
-0.00010823
-0.000138469
-0.000168136
-0.000197094
-0.000225343
-0.000252702
-0.000279034
-0.000304275
-0.000328331
-0.000351116
-0.000372493
-0.000392409
-0.000410779
-0.000427529
-0.000442596
-0.000455915
-0.000467456
-0.000477134
-0.000484948
-0.000490866
-0.000494815
-0.000496817
-0.00049688
-0.000494964
-0.000491089
-0.000485286
-0.000477578
-0.000467954
-0.000456487
-0.000443242
-0.000428218
-0.000411489
-0.000393129
-0.000373277
-0.0003519
-0.000329104
-0.000305048
-0.000279786
-0.000253379
-0.000225988
-0.000197708
-0.000168612
-0.000138903
-0.000108632
-7.78847e-05
-4.68515e-05
-1.56278e-05
1.56172e-05
4.68197e-05
7.78212e-05
0.000108537
0.000138776
0.000168507
0.000197549
0.00022583
0.000253178
0.000279563
0.000304815
0.000328861
0.000351614
0.000372991
0.000392843
0.000411171
0.0004279
0.000442892
0.00045617
0.000467615
0.00047724
0.000484958
0.00049076
0.000494625
0.000496573
0.00049652
0.000494498
0.00049057
0.000484683
0.000476869
0.000467181
0.00045564
0.000442342
0.000427296
0.000410546
0.000392176
0.000372271
0.000350947
0.000328204
0.000304138
0.000278917
0.000252575
0.000225268
0.000197073
0.000168094
0.000138426
0.000108251
7.76517e-05
4.67456e-05
1.56595e-05
-1.55113e-05
-4.66186e-05
-7.75459e-05
-0.000108134
-0.000138331
-0.000167977
-0.000196967
-0.000225163
-0.000252479
-0.00027879
-0.000304021
-0.000328056
-0.000350799
-0.000372176
-0.00039207
-0.000410419
-0.000427169
-0.000442225
-0.000455545
-0.000467054
-0.000476752
-0.000484545
-0.000490453
-0.000494392
-0.000496414
-0.000496446
-0.00049453
-0.000490676
-0.000484895
-0.000477165
-0.000467583
-0.000456117
-0.000442861
-0.000427847
-0.000411118
-0.000392801
-0.000372959
-0.000351593
-0.000328829
-0.000304794
-0.000279521
-0.000253178
-0.000225798
-0.000197539
-0.000168485
-0.000138786
-0.000108526
-7.78212e-05
-4.68303e-05
-1.56172e-05
1.5596e-05
4.67456e-05
7.77259e-05
0.000108388
0.000138617
0.000168305
0.000197295
0.000225544
0.000252861
0.000279193
0.000304434
0.000328437
0.000351169
0.000372515
0.000392367
0.000410652
0.00042736
0.000442384
0.000455598
0.000467022
0.000476625
0.000484365
0.000490136
0.000494
0.000495927
0.000495895
0.000493873
0.000489934
0.000484079
0.000476276
0.000466578
0.000455079
0.000441781
0.000426767
0.000410006
0.000391689
0.000371795
0.000350492
0.00032777
0.000303778
0.000278557
0.000252246
0.000224993
0.00019684
0.000167861
0.000138257
0.000108113
7.75353e-05
4.66927e-05
1.56489e-05
-1.55007e-05
-4.6555e-05
-7.74612e-05
-0.000108028
-0.000138162
-0.000167744
-0.000196723
-0.000224877
-0.00025213
-0.000278451
-0.00030364
-0.000327632
-0.000350365
-0.000371689
-0.000391562
-0.0004099
-0.00042664
-0.000441664
-0.000454952
-0.000466472
-0.00047617
-0.000483952
-0.000489818
-0.000493757
-0.000495779
-0.000495832
-0.000493926
-0.000490051
-0.000484291
-0.000476572
-0.000466969
-0.000455545
-0.000442289
-0.000427296
-0.000410631
-0.000392314
-0.000372472
-0.000351148
-0.000328405
-0.000304413
-0.000279171
-0.00025285
-0.000225501
-0.000197295
-0.000168284
-0.000138606
-0.000108388
-7.77364e-05
-4.67668e-05
-1.56066e-05
1.5596e-05
4.66821e-05
7.76094e-05
0.000108208
0.000138363
0.000167998
0.000196956
0.000225152
0.000252448
0.000278727
0.000303926
0.000327897
0.000350598
0.000371879
0.000391721
0.000409975
0.00042665
0.000441643
0.000454836
0.00046627
0.000475831
0.000483529
0.00048931
0.000493185
0.000495101
0.000495027
0.000493047
0.000489119
0.000483253
0.000475461
0.000465794
0.000454327
0.000441039
0.000426026
0.000409318
0.000391043
0.000371202
0.000349899
0.000327209
0.000303259
0.000278081
0.000251855
0.000224601
0.000196469
0.000167596
0.000138035
0.000107912
7.74188e-05
4.65974e-05
1.56172e-05
-1.54478e-05
-4.64915e-05
-7.73235e-05
-0.000107817
-0.00013796
-0.00016749
-0.000196363
-0.000224474
-0.000251728
-0.000277975
-0.000303153
-0.000327061
-0.00034975
-0.000371075
-0.000390906
-0.000409212
-0.00042592
-0.000440944
-0.0004542
-0.000465699
-0.000475355
-0.000483116
-0.000489003
-0.000492931
-0.000494964
-0.000495006
-0.0004931
-0.000489246
-0.000483444
-0.000475778
-0.000466186
-0.000454761
-0.000441537
-0.000426587
-0.000409943
-0.000391679
-0.000371858
-0.000350534
-0.000327865
-0.000303894
-0.000278706
-0.000252426
-0.000225141
-0.000196967
-0.000168009
-0.000138373
-0.000108208
-7.75988e-05
-4.67033e-05
-1.55854e-05
1.55431e-05
4.65974e-05
7.744e-05
0.000107965
0.000138088
0.000167649
0.000196554
0.000224675
0.000251918
0.000278155
0.000303291
0.000327219
0.000349878
0.000371127
0.000390906
0.000409128
0.000425772
0.000440711
0.000453883
0.000465275
0.000474847
0.000482533
0.000488293
0.000492147
0.000494064
0.000494
0.00049202
0.000488092
0.000482248
0.000474455
0.000464809
0.000453374
0.000440118
0.000425126
0.000408482
0.000390228
0.000370408
0.000349147
0.000326542
0.000302624
0.00027752
0.000251315
0.000224114
0.000196078
0.000167236
0.000137738
0.000107711
7.72494e-05
4.65021e-05
1.55748e-05
-1.54478e-05
-4.63751e-05
-7.71435e-05
-0.000107616
-0.000137664
-0.00016712
-0.000195972
-0.000224008
-0.000251188
-0.000277382
-0.000302507
-0.000326394
-0.00034902
-0.000370291
-0.00039009
-0.000408355
-0.000425031
-0.000440023
-0.000453237
-0.000464735
-0.00047436
-0.000482121
-0.000487986
-0.000491914
-0.000493926
-0.000493968
-0.000492063
-0.000488219
-0.00048247
-0.000474762
-0.000465212
-0.000453798
-0.000440637
-0.000425708
-0.000409075
-0.000390832
-0.000371075
-0.000349814
-0.000327188
-0.00030328
-0.000278123
-0.000251897
-0.000224675
-0.000196565
-0.00016766
-0.000138098
-0.000107986
-7.74294e-05
-4.65762e-05
-1.55536e-05
1.55219e-05
4.64703e-05
7.72388e-05
0.000107711
0.000137738
0.000167247
0.000196067
0.000224125
0.000251262
0.000277446
0.000302539
0.000326425
0.000348999
0.000370217
0.000389932
0.000408143
0.000424702
0.00043961
0.000452771
0.000464142
0.000473661
0.000481326
0.000487097
0.000490898
0.000492814
0.000492751
0.000490803
0.000486885
0.00048103
0.00047328
0.000463666
0.000452231
0.000438996
0.000424088
0.000407455
0.000389233
0.000369486
0.000348279
0.000325716
0.000301851
0.00027681
0.000250701
0.000223564
0.000195569
0.000166834
0.000137421
0.000107436
7.70482e-05
4.63751e-05
1.55325e-05
-1.54054e-05
-4.62586e-05
-7.69424e-05
-0.000107319
-0.000137304
-0.000166707
-0.000195485
-0.000223479
-0.000250552
-0.000276694
-0.000301734
-0.000325578
-0.000348152
-0.000369359
-0.000389106
-0.000407338
-0.000423961
-0.000438932
-0.000452146
-0.000463581
-0.000473163
-0.000480914
-0.000486758
-0.000490686
-0.000492687
-0.00049274
-0.000490856
-0.000487002
-0.000481242
-0.000473597
-0.000464047
-0.000452686
-0.000439536
-0.000424649
-0.000408058
-0.000389868
-0.000370153
-0.000348946
-0.000326372
-0.000302518
-0.000277424
-0.000251283
-0.000224114
-0.000196078
-0.000167257
-0.000137749
-0.000107711
-7.72388e-05
-4.64598e-05
-1.54901e-05
1.54795e-05
4.63221e-05
7.70271e-05
0.000107404
0.000137315
0.000166749
0.000195527
0.00022349
0.000250552
0.000276673
0.000301639
0.000325462
0.000348014
0.000369137
0.00038882
0.000406957
0.000423474
0.00043835
0.000451469
0.000462787
0.000472306
0.000479929
0.000485678
0.00048949
0.000491427
0.000491332
0.000489363
0.000485466
0.000479654
0.000471903
0.000462311
0.000450929
0.000437747
0.000422828
0.000406258
0.000388121
0.000368417
0.000347284
0.000324774
0.000300972
0.000276016
0.000249959
0.000222918
0.000195019
0.000166347
0.000136986
0.000107118
7.68259e-05
4.62268e-05
1.54901e-05
-1.53525e-05
-4.61209e-05
-7.67094e-05
-0.000107001
-0.000136891
-0.000166251
-0.000194913
-0.000222801
-0.000249832
-0.000275879
-0.000300877
-0.000324636
-0.000347146
-0.00036829
-0.000387983
-0.000406152
-0.000422744
-0.000437651
-0.000450833
-0.000462226
-0.000471808
-0.000479516
-0.000485339
-0.000489289
-0.000491279
-0.00049129
-0.000489416
-0.000485615
-0.000479865
-0.000472221
-0.000462713
-0.000451405
-0.000438255
-0.000423411
-0.000406893
-0.000388756
-0.000369073
-0.00034794
-0.000325441
-0.000301639
-0.00027663
-0.000250563
-0.000223458
-0.000195506
-0.00016676
-0.000137368
-0.000107404
-7.70165e-05
-4.63433e-05
-1.54478e-05
1.5416e-05
4.61951e-05
7.67624e-05
0.000107054
0.000136891
0.000166209
0.000194881
0.000222759
0.000249737
0.000275762
0.000300676
0.000324403
0.00034686
0.00036793
0.000387539
0.000405612
0.000422098
0.00043691
0.000449997
0.000461284
0.00047076
0.000478362
0.00048409
0.000487902
0.000489797
0.000489733
0.000487753
0.000483868
0.000478055
0.000470379
0.000460807
0.000449425
0.000436307
0.000421441
0.000404945
0.000386829
0.000367189
0.000346129
0.000323704
0.000299987
0.000275116
0.000249112
0.000222187
0.000194362
0.000165796
0.000136531
0.000106769
7.6593e-05
4.60786e-05
1.54372e-05
-1.52784e-05
-4.59727e-05
-7.64553e-05
-0.000106673
-0.000136446
-0.000165669
-0.000194256
-0.000222081
-0.000249007
-0.000274979
-0.000299892
-0.000323567
-0.000346024
-0.000367083
-0.000386702
-0.000404839
-0.000421335
-0.000436222
-0.00044933
-0.000460701
-0.000470252
-0.000477938
-0.000483762
-0.000487669
-0.000489659
-0.000489702
-0.000487806
-0.000484016
-0.000478288
-0.000470686
-0.00046122
-0.000449902
-0.000436836
-0.000422024
-0.00040557
-0.000387465
-0.000367856
-0.000346807
-0.000324392
-0.000300644
-0.00027572
-0.000249737
-0.000222738
-0.000194871
-0.00016622
-0.000136912
-0.000107054
-7.67624e-05
-4.61845e-05
-1.5416e-05
1.53631e-05
4.59939e-05
7.64765e-05
0.000106673
0.000136415
0.000165616
0.000194151
0.000221944
0.000248837
0.000274767
0.000299564
0.000323217
0.000345568
0.000366585
0.000386152
0.000404151
0.000420552
0.000435311
0.000448345
0.000459611
0.000469044
0.000476615
0.000482322
0.000486112
0.000487997
0.000487944
0.000485975
0.000482089
0.00047634
0.000468653
0.000459102
0.000447773
0.000434697
0.000419895
0.000403431
0.000385432
0.000365865
0.000344848
0.000322497
0.000298886
0.000274079
0.000248212
0.00022134
0.000193663
0.000165182
0.000136033
0.000106377
7.62965e-05
4.59409e-05
1.53736e-05
-1.52254e-05
-4.58033e-05
-7.62012e-05
-0.00010626
-0.000135928
-0.000165055
-0.000193547
-0.000221256
-0.000248107
-0.000273973
-0.00029877
-0.000322381
-0.000344753
-0.000365738
-0.000385284
-0.000403347
-0.0004198
-0.000434581
-0.000447699
-0.000459039
-0.000468526
-0.000476191
-0.000482004
-0.000485879
-0.000487859
-0.000487912
-0.000486006
-0.000482237
-0.000476551
-0.000468939
-0.000459526
-0.000448271
-0.000435248
-0.000420488
-0.000404066
-0.000386056
-0.000366554
-0.000345558
-0.000323196
-0.000299532
-0.000274693
-0.000248837
-0.000221923
-0.000194161
-0.000165627
-0.000136393
-0.000106663
-7.64871e-05
-4.60257e-05
-1.53419e-05
1.53101e-05
4.58457e-05
7.61588e-05
0.000106229
0.000135853
0.00016496
0.000193388
0.000221044
0.000247852
0.000273645
0.000298357
0.000321925
0.000344202
0.000365103
0.000384574
0.000402531
0.00041889
0.000433554
0.000446535
0.000457768
0.00046716
0.000474688
0.000480374
0.000484164
0.000486038
0.000485975
0.000484026
0.000480141
0.000474402
0.000466779
0.00045725
0.000445973
0.000432929
0.00041818
0.000401822
0.000383844
0.000364372
0.000343482
0.000321184
0.000297679
0.000272978
0.000247185
0.000220462
0.000192869
0.000164504
0.000135504
0.000105943
7.59894e-05
4.5761e-05
1.53101e-05
-1.51725e-05
-4.56339e-05
-7.58836e-05
-0.000105837
-0.000135366
-0.000164399
-0.000192774
-0.000220334
-0.00024708
-0.000272861
-0.000297573
-0.000321068
-0.000343355
-0.000364277
-0.000383748
-0.000401716
-0.000418106
-0.000432834
-0.000445868
-0.000457154
-0.00046663
-0.000474275
-0.000480045
-0.000483921
-0.000485922
-0.000485943
-0.000484069
-0.000480299
-0.000474603
-0.000467075
-0.000457662
-0.00044645
-0.000433501
-0.000418794
-0.000402436
-0.000384511
-0.000365071
-0.000344181
-0.000321873
-0.000298357
-0.000273623
-0.000247821
-0.000221044
-0.000193378
-0.000164949
-0.000135843
-0.000106229
-7.61694e-05
-4.58457e-05
-1.52995e-05
1.5236e-05
4.56339e-05
7.58412e-05
0.000105763
0.000135261
0.000164261
0.000192541
0.00022008
0.000246762
0.000272469
0.000297065
0.000320496
0.000342678
0.000363525
0.000382901
0.000400763
0.000417026
0.000431648
0.000444586
0.000455746
0.000465116
0.000472623
0.000478267
0.000482046
0.000483899
0.000483846
0.000481909
0.000478044
0.000472316
0.000464693
0.000455248
0.000444015
0.000431013
0.00041637
0.000400054
0.000382171
0.000362763
0.000341947
0.000319787
0.000296345
0.000271771
0.000246105
0.000219477
0.000192012
0.000163784
0.000134901
0.000105498
7.56612e-05
4.55492e-05
1.52466e-05
-1.51301e-05
-4.54116e-05
-7.55342e-05
-0.000105371
-0.000134763
-0.000163668
-0.000191906
-0.000219382
-0.000245989
-0.000271654
-0.00029626
-0.00031967
-0.000341852
-0.000362668
-0.000382044
-0.000399969
-0.000416274
-0.000430928
-0.000443898
-0.000455132
-0.000464587
-0.0004722
-0.000477928
-0.000481792
-0.000483762
-0.000483815
-0.000481951
-0.000478182
-0.000472549
-0.000465011
-0.000455672
-0.000444491
-0.000431584
-0.000416973
-0.000400689
-0.000382838
-0.000363462
-0.000342646
-0.000320496
-0.000297044
-0.000272416
-0.000246741
-0.00022007
-0.000192541
-0.000164219
-0.000135261
-0.000105773
-7.58306e-05
-4.56339e-05
-1.52254e-05
1.51619e-05
4.54116e-05
7.54918e-05
0.000105265
0.000134646
0.000163467
0.000191631
0.000219053
0.000245618
0.000271156
0.000295678
0.000319014
0.000341079
0.00036181
0.000381048
0.000398857
0.000415036
0.000429605
0.000442479
0.000453597
0.000462904
0.0004704
0.000476022
0.000479759
0.000481612
0.000481591
0.000479643
0.000475778
0.000470072
0.00046248
0.000453078
0.000441887
0.000429001
0.000414379
0.000398169
0.000380339
0.000361037
0.000340327
0.000318262
0.000294937
0.000270458
0.000244941
0.000218439
0.000191122
0.000163001
0.000134244
0.000104979
7.53118e-05
4.53269e-05
1.51937e-05
-1.5056e-05
-4.52104e-05
-7.51742e-05
-0.000104852
-0.000134117
-0.000162874
-0.000190995
-0.000218344
-0.000244835
-0.000270362
-0.000294852
-0.000318156
-0.000340211
-0.000360931
-0.000380244
-0.000398063
-0.000414284
-0.000428895
-0.000441823
-0.000452993
-0.000462364
-0.000469934
-0.000475673
-0.000479505
-0.000481454
-0.000481517
-0.000479654
-0.000475905
-0.000470326
-0.00046284
-0.000453501
-0.000442384
-0.000429541
-0.000414993
-0.000398804
-0.000381048
-0.000361747
-0.000341037
-0.000318982
-0.000295657
-0.000271146
-0.000245576
-0.000219011
-0.00019162
-0.000163467
-0.000134615
-0.000105276
-7.54812e-05
-4.54116e-05
-1.51513e-05
1.50772e-05
4.51998e-05
7.51001e-05
0.000104746
0.000133937
0.000162673
0.000190678
0.000217963
0.000244348
0.000269791
0.000294175
0.000317426
0.000339364
0.000359957
0.000379153
0.000396835
0.000412929
0.000427413
0.000440245
0.000451289
0.000460585
0.000467996
0.000473618
0.000477345
0.000479177
0.000479135
0.000477208
0.000473396
0.000467679
0.00046014
0.000450759
0.000439652
0.00042682
0.000412272
0.000396136
0.000378401
0.000359195
0.000338591
0.000316642
0.000293455
0.000269092
0.000243702
0.000217317
0.000190127
0.000162164
0.000133588
0.000104439
7.49307e-05
4.51045e-05
1.5109e-05
-1.49819e-05
-4.49774e-05
-7.48036e-05
-0.000104312
-0.000133429
-0.000162037
-0.000190011
-0.000217232
-0.000243585
-0.000268986
-0.000293328
-0.000316526
-0.000338485
-0.0003591
-0.000378327
-0.000396041
-0.000412187
-0.000426714
-0.000439578
-0.000450664
-0.000460034
-0.000467573
-0.000473269
-0.00047706
-0.000479018
-0.000479082
-0.000477218
-0.000473502
-0.000467922
-0.000460489
-0.000451204
-0.00044015
-0.00042737
-0.000412929
-0.000396771
-0.0003791
-0.000359947
-0.000339343
-0.000317341
-0.000294175
-0.000269769
-0.000244348
-0.000217931
-0.000190646
-0.000162609
-0.000133948
-0.000104725
-7.51212e-05
-4.51892e-05
-1.50772e-05
1.49925e-05
4.49457e-05
7.47295e-05
0.000104164
0.000133228
0.000161773
0.000189661
0.000216777
0.000243056
0.000268361
0.000292608
0.0003157
0.000337553
0.00035803
0.00037711
0.000394675
0.000410737
0.000425126
0.000437874
0.000448875
0.000458065
0.000465487
0.000471067
0.000474783
0.000476604
0.000476551
0.000474635
0.000470823
0.000465169
0.000457662
0.000448356
0.000437291
0.000424522
0.000410017
0.000393987
0.000376369
0.000357268
0.00033677
0.000314927
0.000291866
0.000267652
0.000242368
0.000216152
0.000189111
0.000161296
0.000132847
0.000103878
7.45283e-05
4.48504e-05
1.50137e-05
-1.4876e-05
-4.47233e-05
-7.44013e-05
-0.000103762
-0.00013273
-0.000161159
-0.000188984
-0.000216036
-0.000242273
-0.000267525
-0.000291739
-0.00031481
-0.000336653
-0.000357173
-0.000376284
-0.000393881
-0.000409964
-0.000424395
-0.000437185
-0.000448271
-0.000457567
-0.000465042
-0.000470707
-0.000474497
-0.000476456
-0.000476488
-0.000474656
-0.000470961
-0.000465413
-0.00045798
-0.000448758
-0.0004378
-0.000425094
-0.000410684
-0.000394654
-0.000377088
-0.000358009
-0.000337511
-0.000315657
-0.000292586
-0.00026834
-0.000243046
-0.000216745
-0.00018963
-0.000161752
-0.000133217
-0.000104164
-7.46977e-05
-4.49457e-05
-1.49925e-05
1.4929e-05
4.47022e-05
7.42848e-05
0.000103582
0.000132476
0.000160862
0.000188581
0.000215549
0.000241658
0.000266847
0.000290966
0.000313921
0.000335637
0.000356019
0.00037496
0.000392473
0.000408397
0.000422701
0.000435386
0.000446323
0.00045546
0.000462861
0.000468367
0.000472062
0.000473904
0.000473851
0.000471914
0.000468145
0.000462533
0.000455058
0.000445804
0.000434803
0.000422066
0.00040773
0.000391732
0.00037423
0.000355224
0.000334853
0.000313159
0.000290193
0.000266117
0.000241002
0.000214913
0.000188031
0.000160354
0.000132095
0.000103285
7.41048e-05
4.45857e-05
1.4929e-05
-1.47913e-05
-4.44692e-05
-7.3946e-05
-0.00010319
-0.000131978
-0.000160237
-0.000187882
-0.000214786
-0.000240875
-0.000266011
-0.000290098
-0.000313021
-0.000334716
-0.000355129
-0.000374113
-0.000391647
-0.000407635
-0.000421981
-0.000434687
-0.00044573
-0.000454952
-0.000462395
-0.000468028
-0.000471808
-0.000473746
-0.000473767
-0.000471956
-0.000468272
-0.000462745
-0.000455397
-0.000446238
-0.000435301
-0.000422669
-0.000408376
-0.00039243
-0.00037495
-0.000355976
-0.000335605
-0.000313879
-0.000290924
-0.000266826
-0.000241658
-0.000215528
-0.000188539
-0.00016082
-0.000132476
-0.000103603
-7.42742e-05
-4.46916e-05
-1.49184e-05
1.48443e-05
4.44481e-05
7.38401e-05
0.000102978
0.000131692
0.000159877
0.000187448
0.000214278
0.000240229
0.000265259
0.000289241
0.000312047
0.000333646
0.00035389
0.000372758
0.000390143
0.000405962
0.000420192
0.00043277
0.000443665
0.00045276
0.000460098
0.000465582
0.000469235
0.000471077
0.000471014
0.000469097
0.000465339
0.000459769
0.000452347
0.000443146
0.000432177
0.000419557
0.000405274
0.000389392
0.000371996
0.000353096
0.000332873
0.000311274
0.000288446
0.000264497
0.000239562
0.000213643
0.000186877
0.000159412
0.000131311
0.000102682
7.36495e-05
4.42998e-05
1.48548e-05
-1.4696e-05
-4.42045e-05
-7.35225e-05
-0.000102533
-0.000131174
-0.000159274
-0.000186771
-0.000213537
-0.000239435
-0.000264391
-0.000288341
-0.000311147
-0.000332725
-0.00035299
-0.000371869
-0.000389296
-0.000405178
-0.000419472
-0.000432103
-0.000443041
-0.000452231
-0.000459632
-0.000465233
-0.000469002
-0.000470897
-0.00047095
-0.00046914
-0.000465498
-0.000459981
-0.000452665
-0.000443581
-0.000432707
-0.00042015
-0.000405951
-0.000390101
-0.000372726
-0.000353837
-0.000333604
-0.000312047
-0.000289198
-0.000265217
-0.000240229
-0.000214246
-0.000187448
-0.000159877
-0.000131682
-0.000102967
-7.38295e-05
-4.43951e-05
-1.48231e-05
1.47172e-05
4.41622e-05
7.33848e-05
0.000102322
0.000130909
0.000158893
0.000186294
0.000212944
0.000238736
0.000263607
0.000287451
0.00031012
0.00033156
0.000351699
0.000370439
0.000387708
0.000403474
0.000417598
0.00043007
0.000440881
0.000449954
0.000457218
0.000462702
0.000466313
0.000468123
0.00046807
0.000466175
0.000462416
0.00045689
0.00044952
0.000440394
0.000429499
0.000416941
0.000402743
0.000386967
0.000369666
0.000350894
0.000330777
0.000309315
0.000286657
0.000262855
0.000238037
0.000212298
0.000185712
0.000158406
0.000130485
0.000102036
7.31836e-05
4.40669e-05
1.47595e-05
-1.46007e-05
-4.39292e-05
-7.30672e-05
-0.000101909
-0.000130348
-0.000158268
-0.000185617
-0.000212192
-0.00023791
-0.00026275
-0.000286541
-0.000309188
-0.00033066
-0.000350778
-0.000369539
-0.000386872
-0.000402637
-0.000416846
-0.000429403
-0.000440256
-0.000449404
-0.000456784
-0.000462332
-0.00046608
-0.000467965
-0.000468007
-0.000466228
-0.000462596
-0.000457123
-0.000449849
-0.000440796
-0.000429996
-0.000417545
-0.00040341
-0.000387676
-0.000370408
-0.000351667
-0.000331539
-0.000310109
-0.000287398
-0.000263575
-0.000238736
-0.000212912
-0.000186273
-0.000158903
-0.000130877
-0.000102332
-7.33531e-05
-4.41198e-05
-1.47172e-05
1.46431e-05
4.38763e-05
7.29084e-05
0.000101665
0.00013002
0.000157876
0.000185098
0.000211599
0.000237212
0.000261903
0.000285588
0.00030814
0.000329422
0.000349422
0.000368057
0.000385209
0.000400837
0.000414898
0.000427307
0.000438054
0.000447022
0.000454243
0.000459717
0.000463295
0.000465074
0.000465042
0.000463147
0.00045942
0.000453925
0.00044663
0.000437524
0.000426725
0.000414241
0.000400117
0.000384458
0.000367263
0.000348628
0.000328617
0.000307335
0.000284762
0.00026113
0.000236492
0.000210922
0.000184516
0.000157379
0.000129628
0.000101379
7.27072e-05
4.37704e-05
1.46643e-05
-1.45054e-05
-4.36328e-05
-7.26013e-05
-0.000101231
-0.00012949
-0.000157262
-0.000184399
-0.000210795
-0.000236386
-0.000261034
-0.000284667
-0.000307187
-0.000328501
-0.00034848
-0.000367136
-0.000384362
-0.000400043
-0.000414136
-0.000426598
-0.000437418
-0.000446492
-0.000453808
-0.000459325
-0.000463062
-0.000464947
-0.000464979
-0.0004632
-0.000459589
-0.000454147
-0.000446948
-0.000437958
-0.000427233
-0.000414834
-0.000400805
-0.000385167
-0.000368004
-0.000349412
-0.00032939
-0.000308098
-0.000285556
-0.000261871
-0.000237201
-0.000211546
-0.000185087
-0.000157876
-0.00013002
-0.000101644
-7.28872e-05
-4.38551e-05
-1.46431e-05
1.45266e-05
4.35798e-05
7.24319e-05
0.000100998
0.000129151
0.000156839
0.00018387
0.000210159
0.000235634
0.000260177
0.000283703
0.000306065
0.000327219
0.000347104
0.00036559
0.000382615
0.000398169
0.000412134
0.000424448
0.0004351
0.000444046
0.000451204
0.000456614
0.000460193
0.000461982
0.000461929
0.000460066
0.000456339
0.000450865
0.000443612
0.000434602
0.000423845
0.000411478
0.000397438
0.000381842
0.000364796
0.000346278
0.000326425
0.000305249
0.000282867
0.000259404
0.000234903
0.000209482
0.000183277
0.000156309
0.000128749
0.000100702
7.22413e-05
4.3474e-05
1.45478e-05
-1.44101e-05
-4.33363e-05
-7.20931e-05
-0.000100564
-0.000128611
-0.000156214
-0.00018316
-0.000209365
-0.000234787
-0.000259277
-0.00028275
-0.000305122
-0.000326256
-0.000346151
-0.000364669
-0.000381768
-0.000397364
-0.000411383
-0.000423739
-0.000434464
-0.000443517
-0.00045077
-0.000456244
-0.000459928
-0.000461813
-0.000461876
-0.000460119
-0.000456498
-0.000451109
-0.00044393
-0.000435047
-0.000424385
-0.000412071
-0.000398105
-0.000382573
-0.000365569
-0.000347072
-0.000327209
-0.000306012
-0.00028365
-0.000260156
-0.000235613
-0.000210159
-0.000183859
-0.000156796
-0.000129141
-0.000100988
-7.24107e-05
-4.35375e-05
-1.45372e-05
1.44313e-05
4.32834e-05
7.19449e-05
0.00010031
0.000128283
0.000155738
0.000182589
0.00020873
0.000234003
0.000258398
0.000281744
0.000303958
0.000324975
0.000344711
0.00036307
0.000380011
0.000395416
0.000409318
0.000421537
0.000432114
0.000440955
0.00044808
0.00045348
0.000457017
0.000458774
0.000458742
0.000456879
0.000453216
0.000447763
0.000440542
0.000431563
0.000420922
0.000408619
0.000394696
0.000379248
0.000362276
0.000343885
0.000324149
0.000303111
0.000280908
0.000257604
0.000233262
0.000208063
0.000181996
0.000155251
0.000127881
9.99922e-05
7.17119e-05
4.31669e-05
1.44631e-05
-1.43254e-05
-4.30187e-05
-7.15849e-05
-9.98758e-05
-0.000127722
-0.000155123
-0.000181869
-0.000207936
-0.000233156
-0.000257498
-0.000280791
-0.000302984
-0.000324011
-0.000343758
-0.000362149
-0.000379121
-0.00039459
-0.000408524
-0.000420838
-0.000431479
-0.000440425
-0.000447646
-0.000453099
-0.000456752
-0.000458615
-0.0004587
-0.000456921
-0.000453364
-0.000447996
-0.000440891
-0.00043204
-0.000421484
-0.000409223
-0.000395353
-0.000379926
-0.000363038
-0.0003447
-0.000324964
-0.000303915
-0.000281723
-0.000258345
-0.000233993
-0.000208709
-0.000182578
-0.000155716
-0.000128262
-0.000100289
-7.19237e-05
-4.32622e-05
-1.44419e-05
1.4336e-05
4.29657e-05
7.14261e-05
9.96005e-05
0.000127394
0.000154658
0.000181297
0.000207237
0.000232394
0.000256598
0.000279722
0.000301819
0.000322677
0.000342254
0.000360508
0.000377332
0.000392653
0.000406417
0.000418572
0.000429065
0.000437853
0.000444904
0.00045023
0.000453777
0.000455534
0.000455513
0.00045365
0.000449986
0.000444597
0.000437418
0.000428514
0.000417926
0.00040575
0.000391912
0.000376548
0.000359703
0.000341439
0.00032182
0.000300961
0.000278917
0.000255772
0.000231621
0.00020657
0.000180704
0.000154149
0.000126981
9.92828e-05
7.12249e-05
4.28599e-05
1.43572e-05
-1.42196e-05
-4.2754e-05
-7.10872e-05
-9.91452e-05
-0.000126843
-0.000153991
-0.000180587
-0.000206443
-0.000231515
-0.000255656
-0.00027878
-0.000300856
-0.000321703
-0.000341301
-0.000359576
-0.000376432
-0.000391806
-0.000405633
-0.00041782
-0.000428419
-0.000437302
-0.000444481
-0.00044988
-0.000453512
-0.000455376
-0.000455439
-0.000453681
-0.000450156
-0.000444841
-0.000437789
-0.000428969
-0.000418498
-0.000406332
-0.000392579
-0.000377268
-0.000360487
-0.000342265
-0.000322656
-0.000301755
-0.000279722
-0.000256545
-0.000232341
-0.000207227
-0.000181286
-0.000154615
-0.000127351
-9.96005e-05
-7.14261e-05
-4.29763e-05
-1.43254e-05
1.42407e-05
4.26481e-05
7.0939e-05
9.89017e-05
0.000126473
0.000153535
0.000179995
0.000205755
0.000230721
0.000254735
0.000277742
0.000299617
0.000320337
0.000339798
0.000357924
0.0003746
0.000389826
0.000403474
0.000415544
0.000425983
0.000434697
0.000441696
0.00044699
0.000450505
0.000452231
0.000452189
0.000450367
0.000446725
0.000441378
0.000434253
0.000425401
0.000414919
0.000402796
0.000389085
0.000373817
0.000357088
0.00033893
0.000319511
0.000298791
0.000276906
0.000253909
0.000229948
0.000205088
0.000179402
0.000153017
0.000126049
9.85523e-05
7.07061e-05
4.25528e-05
1.42407e-05
-1.41137e-05
-4.24152e-05
-7.05896e-05
-9.84358e-05
-0.000125911
-0.000152879
-0.000179275
-0.00020495
-0.000229811
-0.000253813
-0.000276757
-0.000298643
-0.000319384
-0.000338824
-0.000356961
-0.000373711
-0.000388979
-0.000402679
-0.000414781
-0.000425306
-0.000434157
-0.000441251
-0.000446609
-0.00045023
-0.000452093
-0.000452136
-0.00045041
-0.000446916
-0.000441632
-0.000434613
-0.000425878
-0.000415459
-0.00040341
-0.000389762
-0.000374547
-0.000357882
-0.000339798
-0.000320316
-0.000299606
-0.000277689
-0.000254682
-0.000230679
-0.000205734
-0.000179973
-0.000153525
-0.000126462
-9.88593e-05
-7.08861e-05
-4.26693e-05
-1.42407e-05
1.41243e-05
4.23516e-05
7.04202e-05
9.81711e-05
0.000125551
0.000152402
0.000178682
0.000204262
0.000229017
0.00025285
0.000275699
0.000297425
0.000317997
0.00033731
0.000355277
0.000371869
0.000386978
0.00040052
0.000412494
0.00042286
0.000431521
0.000438456
0.000443686
0.000447159
0.000448906
0.000448843
0.000447043
0.000443454
0.000438096
0.000431044
0.000422299
0.00041188
0.000399831
0.000386194
0.000371064
0.000354462
0.000336452
0.000317129
0.000296589
0.000274852
0.000252045
0.000228254
0.000203574
0.000178078
0.000151915
0.000125096
9.78323e-05
7.01767e-05
4.22458e-05
1.41349e-05
-1.40078e-05
-4.21187e-05
-7.00602e-05
-9.77158e-05
-0.000124969
-0.000151757
-0.000177951
-0.000203426
-0.000228138
-0.000251908
-0.000274714
-0.000296451
-0.000317013
-0.000336336
-0.000354324