/*--------------------------------*- C++ -*----------------------------------*\
  =========                 |
  \\      /  F ield         | OpenFOAM: The Open Source CFD Toolbox
   \\    /   O peration     | Website:  https://openfoam.org
    \\  /    A nd           | Version:  7
     \\/     M anipulation  |
\*---------------------------------------------------------------------------*/
FoamFile
{
    version     2.0;
    format      ascii;
    class       volScalarField;
    location    "0.028";
    object      gradTx;
}
// * * * * * * * * * * * * * * * * * * * * * * * * * * * * * * * * * * * * * //

dimensions      [0 -1 0 1 0 0 0];

internalField   nonuniform List<scalar> 
10000
(
0.00389435
0.0116708
0.0194111
0.0270907
0.0346853
0.0421707
0.0495229
0.0567179
0.0637317
0.0705406
0.077121
0.0834495
0.0895032
0.0952593
0.100696
0.105791
0.110523
0.114873
0.11882
0.122347
0.125434
0.128067
0.13023
0.131908
0.13309
0.133765
0.133923
0.133555
0.132656
0.13122
0.129244
0.126727
0.123671
0.120077
0.115954
0.11131
0.106159
0.100518
0.0944082
0.0878519
0.0808753
0.0735062
0.0657741
0.0577106
0.0493511
0.0407349
0.0319053
0.0229087
0.0137929
0.00460575
-0.0046051
-0.0137922
-0.0229081
-0.0319047
-0.0407343
-0.0493506
-0.05771
-0.0657734
-0.0735056
-0.0808747
-0.0878512
-0.0944075
-0.100518
-0.106158
-0.111309
-0.115953
-0.120077
-0.12367
-0.126727
-0.129244
-0.131219
-0.132655
-0.133555
-0.133922
-0.133765
-0.13309
-0.131908
-0.13023
-0.128067
-0.125434
-0.122347
-0.11882
-0.114873
-0.110523
-0.105791
-0.100696
-0.0952593
-0.0895031
-0.0834494
-0.0771208
-0.0705405
-0.0637316
-0.0567178
-0.0495228
-0.0421706
-0.0346851
-0.0270906
-0.0194112
-0.0116711
-0.00389446
0.00390558
0.0117042
0.0194663
0.027168
0.0347846
0.042292
0.0496661
0.0568829
0.0639182
0.0707485
0.0773501
0.0836995
0.0897737
0.09555
0.101006
0.10612
0.110871
0.115238
0.119202
0.122744
0.125847
0.128493
0.130668
0.132358
0.13355
0.134233
0.134398
0.134036
0.133141
0.131708
0.129734
0.127217
0.124157
0.120558
0.116426
0.11177
0.106604
0.100945
0.0948131
0.0882335
0.081232
0.0738364
0.0660757
0.0579806
0.0495854
0.0409296
0.0320576
0.0230174
0.0138578
0.00462733
-0.00462667
-0.0138572
-0.0230167
-0.032057
-0.040929
-0.0495848
-0.05798
-0.0660751
-0.0738358
-0.0812314
-0.0882329
-0.0948125
-0.100944
-0.106603
-0.111769
-0.116425
-0.120557
-0.124156
-0.127216
-0.129734
-0.131708
-0.133141
-0.134036
-0.134398
-0.134233
-0.13355
-0.132358
-0.130668
-0.128493
-0.125847
-0.122744
-0.119202
-0.115238
-0.110871
-0.10612
-0.101006
-0.09555
-0.0897737
-0.0836994
-0.07735
-0.0707484
-0.0639181
-0.0568827
-0.049666
-0.0422919
-0.0347845
-0.0271679
-0.0194663
-0.0117043
-0.00390559
0.00392768
0.0117706
0.0195769
0.0273226
0.0349833
0.0425346
0.0499525
0.0572127
0.0642913
0.0711644
0.0778083
0.0841995
0.0903148
0.0961314
0.101627
0.106779
0.111567
0.115969
0.119967
0.123541
0.126673
0.129346
0.131546
0.133258
0.13447
0.13517
0.135349
0.135
0.134114
0.132687
0.130716
0.128197
0.125132
0.121522
0.117372
0.112693
0.107496
0.101799
0.0956247
0.0889979
0.0819464
0.0744984
0.0666817
0.058524
0.0500576
0.0413216
0.0323634
0.0232347
0.0139872
0.00467021
-0.00466958
-0.0139865
-0.0232341
-0.0323628
-0.041321
-0.0500569
-0.0585234
-0.066681
-0.0744978
-0.0819458
-0.0889973
-0.0956241
-0.101799
-0.107495
-0.112692
-0.117372
-0.121521
-0.125131
-0.128197
-0.130715
-0.132687
-0.134113
-0.134999
-0.135349
-0.13517
-0.13447
-0.133258
-0.131546
-0.129346
-0.126673
-0.123541
-0.119967
-0.115969
-0.111567
-0.106779
-0.101627
-0.0961314
-0.0903148
-0.0841994
-0.0778082
-0.0711643
-0.0642911
-0.0572125
-0.0499523
-0.0425345
-0.0349833
-0.0273226
-0.0195768
-0.0117705
-0.00392762
0.00396077
0.01187
0.0197427
0.0275546
0.0352812
0.0428984
0.0503818
0.0577073
0.0648508
0.0717882
0.0784957
0.0849497
0.0911268
0.0970039
0.102558
0.107768
0.112611
0.117067
0.121115
0.124736
0.127913
0.130627
0.132865
0.13461
0.135852
0.136578
0.136779
0.136446
0.135574
0.134157
0.132191
0.129672
0.126599
0.122974
0.118799
0.114084
0.10884
0.103086
0.0968458
0.0901467
0.0830198
0.075495
0.0675975
0.0593491
0.0507756
0.0419163
0.0328244
0.0235598
0.0141794
0.00473368
-0.00473302
-0.0141787
-0.0235591
-0.0328238
-0.0419156
-0.050775
-0.0593485
-0.0675969
-0.0754944
-0.0830192
-0.0901461
-0.0968452
-0.103086
-0.108839
-0.114083
-0.118799
-0.122973
-0.126599
-0.129671
-0.13219
-0.134157
-0.135574
-0.136446
-0.136778
-0.136577
-0.135851
-0.13461
-0.132864
-0.130627
-0.127913
-0.124736
-0.121115
-0.117067
-0.112611
-0.107768
-0.102558
-0.0970039
-0.0911267
-0.0849496
-0.0784956
-0.071788
-0.0648506
-0.0577072
-0.0503817
-0.0428983
-0.0352812
-0.0275546
-0.0197427
-0.0118699
-0.0039607
0.00400491
0.0120025
0.0199636
0.0278636
0.0356783
0.0433832
0.0509541
0.0583666
0.0655966
0.0726198
0.0794123
0.0859502
0.0922098
0.0981679
0.103801
0.109088
0.114005
0.118532
0.122648
0.126333
0.129569
0.132339
0.134626
0.136416
0.137697
0.138457
0.138687
0.138379
0.137526
0.136122
0.134163
0.131645
0.128565
0.124921
0.120715
0.115952
0.110645
0.104813
0.098481
0.0916814
0.0844522
0.0768285
0.0688321
0.0604706
0.051755
0.042723
0.0334423
0.023989
0.01443
0.00481583
-0.00481514
-0.0144293
-0.0239884
-0.0334417
-0.0427224
-0.0517544
-0.06047
-0.0688315
-0.0768279
-0.0844516
-0.0916808
-0.0984803
-0.104813
-0.110645
-0.115952
-0.120714
-0.124921
-0.128565
-0.131645
-0.134163
-0.136122
-0.137525
-0.138378
-0.138687
-0.138457
-0.137697
-0.136416
-0.134626
-0.132339
-0.129569
-0.126333
-0.122648
-0.118532
-0.114005
-0.109088
-0.103801
-0.0981679
-0.0922098
-0.0859501
-0.0794122
-0.0726197
-0.0655965
-0.0583665
-0.050954
-0.0433831
-0.0356782
-0.0278636
-0.0199636
-0.0120025
-0.00400489
0.00406008
0.0121681
0.0202394
0.0282496
0.0361742
0.0439889
0.0516691
0.0591905
0.0665286
0.0736593
0.0805581
0.0872011
0.0935643
0.0996239
0.105357
0.11074
0.11575
0.120367
0.124568
0.128334
0.131645
0.134483
0.136833
0.138679
0.140009
0.140812
0.141078
0.140799
0.13997
0.138584
0.136637
0.134124
0.131038
0.127375
0.123132
0.118312
0.112925
0.10699
0.100536
0.0936016
0.0862381
0.0784971
0.0703975
0.0619163
0.0530247
0.043757
0.0342157
0.0245121
0.0147283
0.00491229
-0.00491162
-0.0147276
-0.0245114
-0.0342151
-0.0437564
-0.0530241
-0.0619156
-0.0703969
-0.0784965
-0.0862375
-0.0936009
-0.100536
-0.10699
-0.112924
-0.118311
-0.123131
-0.127374
-0.131037
-0.134123
-0.136637
-0.138584
-0.139969
-0.140799
-0.141077
-0.140812
-0.140009
-0.138679
-0.136833
-0.134483
-0.131644
-0.128333
-0.124568
-0.120367
-0.11575
-0.11074
-0.105357
-0.0996239
-0.0935642
-0.087201
-0.080558
-0.0736592
-0.0665285
-0.0591904
-0.051669
-0.0439887
-0.0361741
-0.0282495
-0.0202394
-0.012168
-0.00406006
0.00412625
0.0123665
0.0205699
0.0287122
0.0367688
0.044715
0.0525264
0.0601785
0.0676467
0.0749064
0.0819331
0.0887026
0.0951905
0.101373
0.107225
0.112725
0.117848
0.122573
0.126877
0.13074
0.134142
0.137064
0.13949
0.141403
0.142792
0.143645
0.143954
0.14371
0.142909
0.141547
0.139617
0.137113
0.134027
0.130348
0.126067
0.121181
0.115696
0.109634
0.103023
0.0959033
0.0883577
0.0804843
0.0723082
0.0637399
0.0546428
0.0450414
0.0351335
0.0251023
0.0150509
0.00501418
-0.00501351
-0.0150503
-0.0251016
-0.0351329
-0.0450408
-0.0546422
-0.0637392
-0.0723075
-0.0804837
-0.0883571
-0.0959026
-0.103022
-0.109634
-0.115696
-0.121181
-0.126067
-0.130348
-0.134027
-0.137113
-0.139616
-0.141546
-0.142909
-0.14371
-0.143953
-0.143645
-0.142792
-0.141403
-0.139489
-0.137064
-0.134142
-0.13074
-0.126877
-0.122573
-0.117848
-0.112725
-0.107225
-0.101373
-0.0951904
-0.0887025
-0.0819331
-0.0749063
-0.0676465
-0.0601784
-0.0525263
-0.0447149
-0.0367686
-0.0287122
-0.02057
-0.0123664
-0.0041262
0.00420331
0.0125976
0.0209551
0.0292513
0.0374615
0.0455612
0.0535257
0.0613303
0.0689502
0.0763608
0.0835372
0.0904547
0.0970887
0.103414
0.109408
0.115044
0.120301
0.125153
0.129579
0.133557
0.137066
0.140086
0.142601
0.144593
0.14605
0.146961
0.147318
0.147114
0.146346
0.145011
0.143105
0.14062
0.137544
0.13386
0.129546
0.124588
0.118987
0.112771
0.105965
0.0985802
0.0907583
0.0827309
0.0745718
0.0660573
0.0567349
0.0466073
0.0361554
0.0256986
0.0153508
0.00510422
-0.00510355
-0.0153501
-0.025698
-0.0361547
-0.0466067
-0.0567343
-0.0660567
-0.0745712
-0.0827303
-0.0907577
-0.0985796
-0.105964
-0.11277
-0.118986
-0.124587
-0.129545
-0.133859
-0.137544
-0.140619
-0.143104
-0.14501
-0.146346
-0.147114
-0.147318
-0.146961
-0.14605
-0.144593
-0.1426
-0.140086
-0.137066
-0.133557
-0.129579
-0.125153
-0.120301
-0.115044
-0.109408
-0.103414
-0.0970886
-0.0904547
-0.0835371
-0.0763607
-0.0689501
-0.0613302
-0.0535256
-0.0455611
-0.0374614
-0.0292512
-0.0209551
-0.0125976
-0.00420326
0.00429117
0.0128612
0.0213944
0.0298662
0.0382519
0.0465268
0.0546662
0.0626452
0.0704388
0.0780221
0.08537
0.0924574
0.0992591
0.10575
0.111905
0.1177
0.12311
0.12811
0.132677
0.136788
0.140421
0.143555
0.146172
0.148255
0.149789
0.150765
0.151175
0.151013
0.15028
0.148976
0.1471
0.144647
0.141601
0.137932
0.133601
0.128572
0.122827
0.116436
0.109426
0.10164
0.0933137
0.0850628
0.0771482
0.0691442
0.0595991
0.0484703
0.0371609
0.0261712
0.0155406
0.00515259
-0.0051519
-0.0155399
-0.0261705
-0.0371602
-0.0484697
-0.0595985
-0.0691435
-0.0771475
-0.0850622
-0.0933131
-0.10164
-0.109426
-0.116435
-0.122827
-0.128571
-0.133601
-0.137932
-0.1416
-0.144647
-0.1471
-0.148975
-0.15028
-0.151013
-0.151174
-0.150765
-0.149789
-0.148254
-0.146172
-0.143555
-0.140421
-0.136788
-0.132677
-0.12811
-0.12311
-0.1177
-0.111905
-0.10575
-0.0992591
-0.0924574
-0.08537
-0.078022
-0.0704387
-0.0626451
-0.0546661
-0.0465268
-0.0382518
-0.0298662
-0.0213944
-0.0128612
-0.00429113
0.00438981
0.0131571
0.0218876
0.0305566
0.0391394
0.0476112
0.0559473
0.0641225
0.0721117
0.0798897
0.0874311
0.0947103
0.101702
0.10838
0.114719
0.120693
0.126277
0.131446
0.136174
0.140438
0.144213
0.147478
0.150211
0.152396
0.154017
0.155064
0.155529
0.15541
0.15471
0.153436
0.151597
0.149192
0.146203
0.142591
0.138281
0.133198
0.127246
0.120652
0.113602
0.105181
0.0957389
0.087008
0.0797673
0.0737294
0.0640097
0.0504839
0.0378239
0.026269
0.0154785
0.00511436
-0.00511364
-0.0154778
-0.0262684
-0.0378233
-0.0504833
-0.0640091
-0.0737287
-0.0797667
-0.0870075
-0.0957383
-0.105181
-0.113601
-0.120652
-0.127246
-0.133197
-0.138281
-0.142591
-0.146203
-0.149192
-0.151597
-0.153436
-0.154709
-0.15541
-0.155529
-0.155064
-0.154017
-0.152396
-0.150211
-0.147477
-0.144213
-0.140438
-0.136174
-0.131446
-0.126277
-0.120693
-0.114719
-0.10838
-0.101702
-0.0947102
-0.087431
-0.0798896
-0.0721116
-0.0641224
-0.0559472
-0.0476112
-0.0391393
-0.0305566
-0.0218876
-0.0131571
-0.00438978
0.00449909
0.013485
0.0224341
0.0313216
0.040123
0.0488134
0.0573678
0.065761
0.0739677
0.0819625
0.0897195
0.0972128
0.104416
0.111304
0.117849
0.124025
0.129806
0.135165
0.140076
0.144513
0.14845
0.151862
0.154728
0.157027
0.158744
0.159867
0.160388
0.160307
0.159631
0.158381
0.156578
0.154239
0.151347
0.147867
0.143653
0.138613
0.132232
0.125252
0.119077
0.109679
0.0973938
0.0874093
0.0811331
0.0819471
0.072183
0.0515986
0.0373578
0.0255863
0.0149806
0.00493687
-0.00493616
-0.0149799
-0.0255856
-0.0373571
-0.051598
-0.0721824
-0.0819465
-0.0811325
-0.0874087
-0.0973932
-0.109678
-0.119077
-0.125252
-0.132231
-0.138613
-0.143653
-0.147867
-0.151346
-0.154238
-0.156578
-0.15838
-0.159631
-0.160307
-0.160388
-0.159866
-0.158743
-0.157027
-0.154727
-0.151862
-0.148449
-0.144513
-0.140076
-0.135165
-0.129806
-0.124025
-0.117849
-0.111304
-0.104416
-0.0972128
-0.0897194
-0.0819624
-0.0739677
-0.0657609
-0.0573677
-0.0488133
-0.040123
-0.0313216
-0.0224341
-0.013485
-0.00449909
0.00461889
0.0138445
0.0230332
0.0321606
0.0412018
0.0501321
0.0589264
0.0675594
0.0760055
0.0842391
0.0922341
0.0999641
0.107402
0.114522
0.121296
0.127697
0.133698
0.13927
0.144386
0.149018
0.153138
0.156718
0.159733
0.16216
0.163982
0.165186
0.165765
0.165711
0.165038
0.163787
0.162005
0.159747
0.156988
0.153787
0.149763
0.145284
0.137732
0.128967
0.127699
0.116992
0.0966856
0.0840465
0.075355
0.068923
0.0593627
0.0463345
0.0343981
0.0237217
0.0139115
0.00458572
-0.00458503
-0.0139108
-0.023721
-0.0343974
-0.0463339
-0.0593621
-0.0689224
-0.0753543
-0.0840459
-0.0966851
-0.116992
-0.127699
-0.128966
-0.137732
-0.145283
-0.149763
-0.153786
-0.156987
-0.159747
-0.162005
-0.163787
-0.165038
-0.165711
-0.165764
-0.165186
-0.163981
-0.16216
-0.159733
-0.156718
-0.153138
-0.149018
-0.144386
-0.13927
-0.133698
-0.127697
-0.121296
-0.114522
-0.107402
-0.099964
-0.0922341
-0.084239
-0.0760055
-0.0675593
-0.0589263
-0.0501321
-0.0412018
-0.0321606
-0.0230332
-0.0138444
-0.00461888
0.00474906
0.014235
0.0236843
0.0330723
0.0423745
0.0515659
0.0606214
0.0695158
0.0782233
0.0867179
0.0949732
0.102962
0.110658
0.118034
0.12506
0.13171
0.137954
0.143764
0.14911
0.153961
0.158288
0.162058
0.165241
0.167811
0.169747
0.17104
0.171679
0.17164
0.170927
0.169628
0.16781
0.165659
0.162971
0.160431
0.156232
0.154929
0.144354
0.125097
0.113911
0.102062
0.0882467
0.0766827
0.0672686
0.0589811
0.0499702
0.0399483
0.0301567
0.0209764
0.0123496
0.00407684
-0.00407618
-0.0123489
-0.0209757
-0.030156
-0.0399476
-0.0499696
-0.0589805
-0.067268
-0.0766821
-0.0882461
-0.102062
-0.113911
-0.125097
-0.144353
-0.154929
-0.156232
-0.160431
-0.16297
-0.165658
-0.167809
-0.169628
-0.170926
-0.17164
-0.171678
-0.17104
-0.169747
-0.16781
-0.165241
-0.162058
-0.158288
-0.153961
-0.149109
-0.143764
-0.137954
-0.13171
-0.12506
-0.118034
-0.110658
-0.102962
-0.0949732
-0.0867179
-0.0782232
-0.0695157
-0.0606214
-0.0515658
-0.0423744
-0.0330723
-0.0236843
-0.014235
-0.00474906
0.00488943
0.0146561
0.0243863
0.0340556
0.0436393
0.0531128
0.0624508
0.071628
0.0806186
0.0893964
0.0979347
0.106206
0.114183
0.121837
0.12914
0.136062
0.142575
0.148647
0.154249
0.159348
0.16391
0.167897
0.171271
0.173999
0.176059
0.177448
0.178166
0.17814
0.177295
0.175882
0.173839
0.172
0.168697
0.168626
0.159697
0.141976
0.127794
0.113072
0.10071
0.0890319
0.0775006
0.0671217
0.0580146
0.0497264
0.041558
0.0333077
0.0252865
0.0176656
0.0104269
0.00344601
-0.00344534
-0.0104262
-0.0176649
-0.0252858
-0.033307
-0.0415574
-0.0497257
-0.058014
-0.0671211
-0.0775001
-0.0890314
-0.100709
-0.113072
-0.127793
-0.141976
-0.159696
-0.168626
-0.168696
-0.172
-0.173839
-0.175881
-0.177294
-0.17814
-0.178166
-0.177448
-0.176058
-0.173999
-0.171271
-0.167897
-0.16391
-0.159348
-0.154249
-0.148647
-0.142575
-0.136062
-0.12914
-0.121837
-0.114183
-0.106206
-0.0979346
-0.0893964
-0.0806186
-0.071628
-0.0624507
-0.0531127
-0.0436393
-0.0340556
-0.0243863
-0.0146561
-0.0048894
0.00503973
0.0151071
0.0251382
0.0351088
0.0449945
0.0547706
0.064412
0.0738933
0.0831887
0.0922718
0.101115
0.109692
0.117973
0.125931
0.133534
0.140754
0.14756
0.153922
0.159808
0.165184
0.170013
0.174251
0.177848
0.180752
0.182933
0.184419
0.185286
0.185347
0.184115
0.182649
0.179549
0.179688
0.171073
0.153798
0.140078
0.125388
0.111687
0.0986138
0.086761
0.0758005
0.0655565
0.0562508
0.0479093
0.0403243
0.0332053
0.0264203
0.0200029
0.0139638
0.00824133
0.00272391
-0.00272323
-0.00824068
-0.0139631
-0.0200022
-0.0264196
-0.0332047
-0.0403237
-0.0479086
-0.0562502
-0.0655559
-0.0757999
-0.0867605
-0.0986133
-0.111687
-0.125387
-0.140077
-0.153798
-0.171073
-0.179687
-0.179549
-0.182649
-0.184115
-0.185346
-0.185286
-0.184419
-0.182933
-0.180752
-0.177848
-0.174251
-0.170013
-0.165184
-0.159807
-0.153922
-0.14756
-0.140754
-0.133534
-0.125931
-0.117973
-0.109692
-0.101115
-0.0922717
-0.0831887
-0.0738933
-0.0644119
-0.0547705
-0.0449945
-0.0351088
-0.0251382
-0.015107
-0.0050397
0.00519971
0.0155871
0.0259386
0.0362303
0.0464377
0.0565365
0.0665018
0.0763082
0.0859298
0.0953401
0.104512
0.113417
0.122027
0.130311
0.13824
0.145782
0.152908
0.159585
0.165784
0.17147
0.176606
0.181141
0.185007
0.188114
0.190385
0.191888
0.193089
0.19372
0.191043
0.190924
0.181893
0.164238
0.150226
0.135308
0.121333
0.107726
0.0948837
0.0828752
0.0718697
0.0618103
0.0526396
0.0443875
0.0370245
0.030438
0.0245039
0.019154
0.0143331
0.00993984
0.00584771
0.00193047
-0.00192981
-0.00584705
-0.00993921
-0.0143324
-0.0191534
-0.0245033
-0.0304373
-0.0370238
-0.0443869
-0.052639
-0.0618097
-0.0718691
-0.0828746
-0.0948832
-0.107726
-0.121333
-0.135307
-0.150226
-0.164238
-0.181893
-0.190923
-0.191043
-0.19372
-0.193089
-0.191888
-0.190385
-0.188114
-0.185007
-0.181141
-0.176606
-0.17147
-0.165783
-0.159585
-0.152908
-0.145782
-0.13824
-0.130311
-0.122027
-0.113417
-0.104512
-0.0953401
-0.0859298
-0.0763082
-0.0665018
-0.0565365
-0.0464377
-0.0362303
-0.0259386
-0.0155871
-0.00519967
0.00536905
0.0160953
0.0267861
0.0374177
0.0479663
0.0584075
0.0687166
0.0788686
0.0888376
0.098597
0.108119
0.117376
0.126338
0.134975
0.143254
0.151145
0.158615
0.165633
0.172172
0.178201
0.183689
0.188586
0.192805
0.196188
0.198477
0.199529
0.201328
0.205263
0.195278
0.17621
0.16097
0.14503
0.130183
0.115784
0.102144
0.0892359
0.0771908
0.0660885
0.0559957
0.0469024
0.0387816
0.031618
0.0253503
0.0198899
0.0152121
0.0113545
0.00823293
0.00561326
0.00327835
0.00107982
-0.00107916
-0.00327772
-0.0056126
-0.00823227
-0.0113539
-0.0152115
-0.0198893
-0.0253497
-0.0316174
-0.0387811
-0.0469019
-0.0559952
-0.066088
-0.0771903
-0.0892354
-0.102143
-0.115784
-0.130183
-0.14503
-0.160969
-0.176209
-0.195277
-0.205263
-0.201328
-0.199529
-0.198477
-0.196188
-0.192805
-0.188585
-0.183689
-0.178201
-0.172172
-0.165633
-0.158615
-0.151145
-0.143254
-0.134975
-0.126338
-0.117376
-0.108119
-0.098597
-0.0888376
-0.0788686
-0.0687166
-0.0584074
-0.0479662
-0.0374177
-0.0267861
-0.0160952
-0.005369
0.00554736
0.0166305
0.0276787
0.0386687
0.049577
0.0603796
0.0710521
0.0815697
0.0919067
0.102037
0.111932
0.121565
0.130903
0.139917
0.148573
0.156837
0.164676
0.172059
0.17896
0.18536
0.191242
0.196581
0.201308
0.205221
0.207666
0.206281
0.207283
0.198814
0.176689
0.15754
0.140634
0.124632
0.109609
0.0954318
0.082162
0.0698346
0.058517
0.0482632
0.0391006
0.031007
0.0239569
0.0179474
0.012867
0.00855999
0.00510244
0.00282211
0.00163389
0.00100438
0.000574257
0.000190159
-0.000189513
-0.000573621
-0.00100373
-0.00163325
-0.00282148
-0.00510183
-0.00855941
-0.0128664
-0.0179468
-0.0239563
-0.0310065
-0.0391001
-0.0482626
-0.0585166
-0.0698341
-0.0821615
-0.0954313
-0.109608
-0.124631
-0.140634
-0.15754
-0.176688
-0.198813
-0.207283
-0.20628
-0.207666
-0.205221
-0.201308
-0.196581
-0.191242
-0.18536
-0.17896
-0.172059
-0.164676
-0.156837
-0.148573
-0.139917
-0.130903
-0.121565
-0.111932
-0.102037
-0.0919067
-0.0815696
-0.0710521
-0.0603795
-0.049577
-0.0386688
-0.0276787
-0.0166304
-0.00554734
0.00573429
0.0171915
0.0286146
0.0399805
0.0512663
0.0624484
0.073503
0.0844055
0.0951307
0.105652
0.115943
0.125975
0.135715
0.145133
0.154192
0.162856
0.171088
0.178855
0.186132
0.192912
0.199208
0.205051
0.210482
0.215572
0.220532
0.210491
0.190792
0.174109
0.154995
0.136519
0.119302
0.103177
0.0881233
0.0741202
0.0611975
0.0493936
0.0387589
0.0293338
0.0211306
0.014068
0.00809563
0.00335521
-0.00037963
-0.00360799
-0.00617243
-0.00679109
-0.00551446
-0.00379708
-0.00217172
-0.000702561
0.000703196
0.00217235
0.0037977
0.00551508
0.00679168
0.00617305
0.0036086
0.000380254
-0.0033546
-0.00809506
-0.0140674
-0.0211301
-0.0293332
-0.0387584
-0.0493931
-0.061197
-0.0741198
-0.0881229
-0.103176
-0.119301
-0.136519
-0.154995
-0.174109
-0.190791
-0.21049
-0.220531
-0.215572
-0.210482
-0.20505
-0.199208
-0.192912
-0.186131
-0.178854
-0.171088
-0.162856
-0.154192
-0.145133
-0.135715
-0.125975
-0.115943
-0.105652
-0.0951307
-0.0844055
-0.0735029
-0.0624484
-0.0512663
-0.0399805
-0.0286146
-0.0171915
-0.00573426
0.00592936
0.017777
0.0295913
0.0413498
0.05303
0.0646089
0.0760634
0.0873693
0.098502
0.109436
0.120144
0.130598
0.140766
0.150615
0.160107
0.169201
0.177852
0.186019
0.193671
0.200812
0.207486
0.213781
0.21984
0.225888
0.216467
0.192435
0.171142
0.151709
0.132558
0.114149
0.0968049
0.0805909
0.0655436
0.0516965
0.0390934
0.0277726
0.0177887
0.00918753
0.00203089
-0.00394573
-0.00897836
-0.0122213
-0.0141105
-0.0164168
-0.0193702
-0.0182789
-0.0130873
-0.00849502
-0.0047548
-0.00152966
0.00153027
0.00475542
0.00849563
0.0130879
0.0182795
0.0193708
0.0164175
0.0141111
0.0122219
0.00897893
0.00394627
-0.00203035
-0.00918701
-0.0177882
-0.0277721
-0.039093
-0.051696
-0.0655431
-0.0805905
-0.0968045
-0.114149
-0.132557
-0.151709
-0.171142
-0.192435
-0.216466
-0.225888
-0.219839
-0.213781
-0.207486
-0.200812
-0.193671
-0.186019
-0.177852
-0.169201
-0.160107
-0.150615
-0.140766
-0.130598
-0.120144
-0.109436
-0.098502
-0.0873692
-0.0760634
-0.0646089
-0.05303
-0.0413499
-0.0295913
-0.017777
-0.00592935
0.0061321
0.0183855
0.0306065
0.0427731
0.0548635
0.0668555
0.0787265
0.0904531
0.102012
0.113377
0.124524
0.135423
0.146045
0.156355
0.166314
0.175874
0.184978
0.193565
0.201584
0.209033
0.215986
0.222586
0.229036
0.219735
0.19508
0.171495
0.149507
0.128923
0.10929
0.0906479
0.0731254
0.0568018
0.0417403
0.0280176
0.0157071
0.00482399
-0.00454665
-0.0123793
-0.0182199
-0.0228708
-0.0278068
-0.0291153
-0.0273887
-0.0285435
-0.0365764
-0.0338347
-0.0200373
-0.012325
-0.00681372
-0.00218857
0.0021892
0.00681432
0.0123256
0.0200379
0.0338353
0.036577
0.0285441
0.0273892
0.0291159
0.0278073
0.0228713
0.0182205
0.0123798
0.00454716
-0.0048235
-0.0157067
-0.0280171
-0.0417399
-0.0568013
-0.0731249
-0.0906475
-0.10929
-0.128923
-0.149507
-0.171495
-0.19508
-0.219734
-0.229036
-0.222586
-0.215986
-0.209033
-0.201584
-0.193565
-0.184978
-0.175874
-0.166314
-0.156355
-0.146045
-0.135423
-0.124524
-0.113377
-0.102012
-0.0904531
-0.0787265
-0.0668555
-0.0548635
-0.0427731
-0.0306065
-0.0183855
-0.0061321
0.00634192
0.0190153
0.0316572
0.0442465
0.0567618
0.0691818
0.0814847
0.0936481
0.105649
0.117465
0.129069
0.140437
0.151538
0.16234
0.172803
0.182877
0.192489
0.201538
0.209915
0.21759
0.224673
0.231364
0.222038
0.196998
0.172473
0.148832
0.126365
0.105104
0.0849668
0.0659803
0.0482168
0.0317358
0.0165972
0.00293761
-0.00908459
-0.0196061
-0.0283814
-0.0358938
-0.0396124
-0.0414601
-0.0502089
-0.0489923
-0.0377374
-0.0337452
-0.0327432
-0.0286379
-0.0208717
-0.0139345
-0.00797563
-0.00259658
0.00259719
0.00797623
0.0139351
0.0208723
0.0286385
0.0327438
0.0337458
0.037738
0.0489929
0.0502095
0.0414607
0.0396129
0.0358943
0.0283819
0.0196066
0.00908505
-0.00293712
-0.0165967
-0.0317353
-0.0482164
-0.0659798
-0.0849664
-0.105103
-0.126364
-0.148832
-0.172472
-0.196997
-0.222038
-0.231364
-0.224673
-0.21759
-0.209915
-0.201538
-0.192489
-0.182877
-0.172803
-0.16234
-0.151538
-0.140437
-0.129069
-0.117465
-0.105649
-0.0936481
-0.0814846
-0.0691818
-0.0567618
-0.0442465
-0.0316572
-0.0190153
-0.00634192
0.00655826
0.0196647
0.0327406
0.0457657
0.0587193
0.0715809
0.0843296
0.0969441
0.109403
0.121684
0.133764
0.14562
0.157224
0.168548
0.179558
0.190208
0.200418
0.21003
0.218784
0.226569
0.233569
0.224209
0.198814
0.17359
0.148852
0.12489
0.101933
0.080099
0.0594512
0.040066
0.0220192
0.00533597
-0.0100024
-0.023745
-0.0353316
-0.0457282
-0.0534178
-0.0631348
-0.0628071
-0.0530801
-0.0507406
-0.0470752
-0.0407664
-0.0359064
-0.0319661
-0.0270612
-0.0208472
-0.0145455
-0.00854605
-0.00281547
0.00281607
0.00854665
0.0145461
0.0208478
0.0270617
0.0319667
0.035907
0.0407669
0.0470758
0.0507411
0.0530807
0.0628077
0.0631353
0.0534183
0.0457286
0.0353321
0.0237455
0.0100028
-0.00533548
-0.0220187
-0.0400656
-0.0594508
-0.0800985
-0.101932
-0.12489
-0.148852
-0.17359
-0.198814
-0.224209
-0.233569
-0.226568
-0.218784
-0.21003
-0.200418
-0.190208
-0.179558
-0.168548
-0.157224
-0.14562
-0.133764
-0.121684
-0.109403
-0.0969441
-0.0843296
-0.0715809
-0.0587193
-0.0457657
-0.0327406
-0.0196647
-0.00655827
0.00678052
0.0203317
0.0338536
0.0473263
0.0607302
0.0740455
0.0872522
0.10033
0.11326
0.12602
0.138591
0.15095
0.163076
0.174946
0.186539
0.197834
0.20879
0.219215
0.228447
0.236145
0.226872
0.201142
0.175259
0.149564
0.124347
0.0998625
0.0763171
0.0538699
0.0326551
0.012814
-0.00552431
-0.0223753
-0.03815
-0.0525235
-0.0626983
-0.0744776
-0.0763413
-0.0685663
-0.0635497
-0.0572349
-0.052525
-0.0477348
-0.0422888
-0.0370974
-0.0321092
-0.0267563
-0.0208819
-0.0148343
-0.00883585
-0.00293142
0.002932
0.00883643
0.0148349
0.0208824
0.0267569
0.0321098
0.037098
0.0422893
0.0477353
0.0525255
0.0572354
0.0635502
0.0685668
0.0763418
0.0744781
0.0626988
0.052524
0.0381504
0.0223758
0.00552479
-0.0128135
-0.0326546
-0.0538695
-0.0763167
-0.099862
-0.124347
-0.149564
-0.175259
-0.201142
-0.226871
-0.236145
-0.228446
-0.219215
-0.20879
-0.197834
-0.186539
-0.174946
-0.163076
-0.15095
-0.138591
-0.12602
-0.11326
-0.10033
-0.0872522
-0.0740455
-0.0607302
-0.0473263
-0.0338536
-0.0203317
-0.00678051
0.00700802
0.0210146
0.0349929
0.0489238
0.0627885
0.0765679
0.0902432
0.103795
0.117206
0.130456
0.143528
0.156404
0.169063
0.181489
0.193673
0.205645
0.217525
0.229414
0.239452
0.230732
0.204679
0.178064
0.15138
0.124949
0.0990273
0.0738354
0.0495675
0.0263949
0.00449215
-0.0159147
-0.0345114
-0.0511035
-0.0676241
-0.0854128
-0.0883638
-0.0812748
-0.0770361
-0.0711434
-0.0655024
-0.0597058
-0.0543182
-0.0489856
-0.0434998
-0.0380358
-0.0325746
-0.0269379
-0.0210623
-0.0150546
-0.00902005
-0.00300266
0.00300323
0.00902062
0.0150551
0.0210629
0.0269385
0.0325752
0.0380364
0.0435004
0.0489861
0.0543187
0.0597063
0.0655029
0.0711439
0.0770366
0.0812753
0.0883643
0.0854134
0.0676245
0.051104
0.0345118
0.0159152
-0.00449167
-0.0263945
-0.0495671
-0.073835
-0.0990269
-0.124949
-0.15138
-0.178064
-0.204679
-0.230731
-0.239451
-0.229414
-0.217525
-0.205645
-0.193673
-0.181489
-0.169063
-0.156404
-0.143528
-0.130456
-0.117206
-0.103795
-0.0902432
-0.0765679
-0.0627885
-0.0489238
-0.0349929
-0.0210146
-0.00700801
0.00724013
0.0217113
0.0361552
0.0505535
0.0648881
0.0791406
0.093293
0.107327
0.121227
0.134975
0.148555
0.161954
0.175153
0.188132
0.200866
0.213379
0.226071
0.24127
0.237247
0.210693
0.182878
0.154914
0.127134
0.0997393
0.0729166
0.0468493
0.0217116
-0.00233804
-0.0251332
-0.0464004
-0.0654316
-0.0798164
-0.0957269
-0.101259
-0.0921877
-0.0851113
-0.0792812
-0.0733744
-0.0675242
-0.0616898
-0.055986
-0.0503265
-0.0446336
-0.0389232
-0.0331744
-0.0273247
-0.0213487
-0.0152828
-0.0091759
-0.00305867
0.00305921
0.00917647
0.0152833
0.0213493
0.0273252
0.033175
0.0389238
0.0446342
0.0503271
0.0559865
0.0616904
0.0675248
0.0733749
0.0792818
0.0851118
0.0921882
0.10126
0.0957274
0.0798169
0.0654321
0.0464008
0.0251337
0.00233852
-0.0217112
-0.0468489
-0.0729162
-0.099739
-0.127133
-0.154913
-0.182877
-0.210693
-0.237247
-0.24127
-0.226071
-0.213379
-0.200865
-0.188132
-0.175153
-0.161954
-0.148555
-0.134975
-0.121227
-0.107327
-0.093293
-0.0791406
-0.0648881
-0.0505535
-0.0361552
-0.0217113
-0.00724012
0.00747619
0.0224198
0.0373372
0.0522108
0.0670229
0.081756
0.0963925
0.110915
0.125309
0.139558
0.153651
0.167577
0.181325
0.194868
0.208113
0.220755
0.231917
0.240375
0.225606
0.191736
0.161076
0.131459
0.102411
0.0738943
0.0460142
0.0189238
-0.00721707
-0.0322865
-0.0562251
-0.0790395
-0.100897
-0.106889
-0.102318
-0.0998163
-0.093896
-0.0875911
-0.0815017
-0.0754556
-0.0694456
-0.0634666
-0.0575402
-0.0516394
-0.0457307
-0.039802
-0.0338354
-0.0278048
-0.0216996
-0.0155338
-0.00933118
-0.0031117
0.00311225
0.00933173
0.0155344
0.0217002
0.0278053
0.0338359
0.0398026
0.0457313
0.05164
0.0575408
0.0634671
0.0694462
0.0754561
0.0815022
0.0875916
0.0938965
0.0998168
0.102319
0.10689
0.100898
0.07904
0.0562256
0.032287
0.00721749
-0.0189233
-0.0460138
-0.0738939
-0.10241
-0.131459
-0.161075
-0.191736
-0.225606
-0.240375
-0.231917
-0.220755
-0.208113
-0.194868
-0.181325
-0.167577
-0.153651
-0.139558
-0.125308
-0.110915
-0.0963925
-0.081756
-0.067023
-0.0522108
-0.0373372
-0.0224198
-0.00747618
0.00771552
0.0231382
0.0385357
0.0538912
0.0691873
0.0844071
0.0995331
0.114549
0.129438
0.144188
0.158791
0.173244
0.187555
0.201739
0.215788
0.229421
0.240265
0.230734
0.201106
0.169409
0.1381
0.107339
0.0770863
0.0473741
0.0183111
-0.00993522
-0.0371747
-0.0632984
-0.0883498
-0.112521
-0.120333
-0.112624
-0.106708
-0.101665
-0.0958712
-0.0897471
-0.0835791
-0.0774094
-0.0712529
-0.0651152
-0.0590012
-0.0528999
-0.0467946
-0.0406729
-0.0345215
-0.0283277
-0.0220865
-0.015804
-0.00949274
-0.00316568
0.00316622
0.00949326
0.0158045
0.022087
0.0283282
0.034522
0.0406734
0.0467952
0.0529004
0.0590018
0.0651158
0.0712534
0.0774099
0.0835796
0.0897476
0.0958717
0.101666
0.106709
0.112625
0.120334
0.112521
0.0883503
0.0632989
0.0371752
0.00993566
-0.0183107
-0.0473737
-0.0770859
-0.107339
-0.1381
-0.169408
-0.201106
-0.230733
-0.240265
-0.229421
-0.215788
-0.201739
-0.187555
-0.173244
-0.158791
-0.144188
-0.129438
-0.114549
-0.0995331
-0.0844071
-0.0691873
-0.0538912
-0.0385358
-0.0231382
-0.00771552
0.00795746
0.0238644
0.0397474
0.0555901
0.0713757
0.0870872
0.102707
0.118219
0.133605
0.148852
0.163952
0.17891
0.193754
0.208574
0.223693
0.240672
0.237011
0.209221
0.178501
0.146551
0.11447
0.0826348
0.0511766
0.0201903
-0.0101938
-0.0397576
-0.0681774
-0.0952856
-0.121233
-0.130454
-0.123378
-0.116425
-0.110093
-0.104141
-0.0980615
-0.0918407
-0.0855603
-0.0792603
-0.0729595
-0.0666663
-0.0603832
-0.0541051
-0.0478232
-0.0415285
-0.0352121
-0.0288671
-0.0224906
-0.0160858
-0.00965978
-0.00322111
0.00322165
0.00966028
0.0160863
0.0224911
0.0288676
0.0352127
0.041529
0.0478238
0.0541056
0.0603837
0.0666669
0.0729601
0.0792609
0.0855609
0.0918412
0.098062
0.104142
0.110094
0.116426
0.123378
0.130455
0.121233
0.095286
0.0681779
0.0397581
0.0101942
-0.0201899
-0.0511763
-0.0826344
-0.11447
-0.14655
-0.178501
-0.209221
-0.237011
-0.240672
-0.223693
-0.208574
-0.193754
-0.17891
-0.163952
-0.148852
-0.133604
-0.118219
-0.102707
-0.0870872
-0.0713757
-0.0555901
-0.0397475
-0.0238644
-0.00795746
0.0082013
0.0245964
0.0409688
0.057303
0.0735826
0.0897907
0.105909
0.121919
0.137802
0.15354
0.16912
0.18454
0.199811
0.214927
0.229537
0.240584
0.22591
0.190451
0.156975
0.123703
0.0905095
0.0575003
0.0247746
-0.00758494
-0.0394772
-0.0706524
-0.100391
-0.128306
-0.138926
-0.132763
-0.126148
-0.119466
-0.112967
-0.106624