/*--------------------------------*- C++ -*----------------------------------*\
  =========                 |
  \\      /  F ield         | OpenFOAM: The Open Source CFD Toolbox
   \\    /   O peration     | Website:  https://openfoam.org
    \\  /    A nd           | Version:  7
     \\/     M anipulation  |
\*---------------------------------------------------------------------------*/
FoamFile
{
    version     2.0;
    format      ascii;
    class       volScalarField;
    location    "0.029";
    object      gradTy;
}
// * * * * * * * * * * * * * * * * * * * * * * * * * * * * * * * * * * * * * //

dimensions      [0 -1 0 1 0 0 0];

internalField   nonuniform List<scalar> 
10000
(
0.00359862
0.00360761
0.00362595
0.0036535
0.00369013
0.00373583
0.00379056
0.00385428
0.00392691
0.00400834
0.0040985
0.00419722
0.00430437
0.00441972
0.00454311
0.00467428
0.00481293
0.0049588
0.00511143
0.00527046
0.00543543
0.00560594
0.00578143
0.00596143
0.00614534
0.00633267
0.00652289
0.00671546
0.0069098
0.00710536
0.00730155
0.00749764
0.00769282
0.00788607
0.00807626
0.00826216
0.00844242
0.00861573
0.00878095
0.00893711
0.00908356
0.00921978
0.00934516
0.00945875
0.00955902
0.00964435
0.00971322
0.0097649
0.0097992
0.00981624
0.00981624
0.00979918
0.0097649
0.00971323
0.00964433
0.00955903
0.00945874
0.00934517
0.00921978
0.00908355
0.00893711
0.00878095
0.00861573
0.00844241
0.00826217
0.00807628
0.00788607
0.00769283
0.00749765
0.00730157
0.00710539
0.0069098
0.00671546
0.00652288
0.00633267
0.00614533
0.0059614
0.00578143
0.00560594
0.00543544
0.00527044
0.00511142
0.0049588
0.00481297
0.00467429
0.00454314
0.00441972
0.00430434
0.0041972
0.00409849
0.00400834
0.0039269
0.00385431
0.00379058
0.00373586
0.00369015
0.00365353
0.00362599
0.0036076
0.00359847
0.0107842
0.0108116
0.0108665
0.0109489
0.0110587
0.0111958
0.01136
0.011551
0.0117689
0.0120132
0.0122836
0.0125797
0.0129011
0.0132473
0.0136175
0.014011
0.014427
0.0148646
0.0153226
0.0157998
0.016295
0.0168066
0.0173333
0.0178734
0.0184253
0.0189875
0.0195583
0.0201362
0.0207194
0.0213063
0.0218952
0.0224839
0.0230699
0.0236504
0.0242219
0.0247805
0.0253222
0.0258429
0.0263391
0.0268079
0.0272475
0.0276564
0.0280333
0.0283753
0.0286776
0.0289347
0.0291421
0.0292972
0.0293998
0.0294507
0.0294507
0.0293998
0.0292972
0.0291421
0.0289347
0.0286776
0.0283753
0.0280333
0.0276564
0.0272475
0.0268079
0.0263391
0.0258429
0.0253222
0.0247805
0.0242219
0.0236504
0.0230699
0.0224839
0.0218952
0.0213063
0.0207194
0.0201361
0.0195583
0.0189875
0.0184253
0.0178734
0.0173333
0.0168066
0.016295
0.0157998
0.0153226
0.0148646
0.0144271
0.014011
0.0136175
0.0132472
0.0129011
0.0125797
0.0122836
0.0120132
0.0117689
0.0115511
0.01136
0.0111958
0.0110588
0.010949
0.0108666
0.0108115
0.0107839
0.0179347
0.0179806
0.0180721
0.0182094
0.0183922
0.0186205
0.018894
0.0192123
0.0195752
0.0199822
0.0204328
0.0209263
0.021462
0.0220389
0.022656
0.023312
0.0240056
0.0247352
0.0254989
0.0262947
0.0271204
0.0279738
0.0288521
0.0297529
0.0306734
0.0316109
0.0325628
0.0335263
0.0344988
0.0354778
0.0364602
0.0374426
0.0384213
0.0393912
0.0403466
0.0412808
0.0421868
0.0430573
0.0438863
0.0446687
0.0454017
0.046084
0.0467144
0.0472886
0.0477979
0.0482309
0.0485787
0.0488373
0.0490071
0.049091
0.049091
0.0490071
0.0488372
0.0485787
0.0482309
0.0477978
0.0472886
0.0467144
0.046084
0.0454017
0.0446687
0.0438863
0.0430574
0.0421868
0.0412809
0.0403466
0.0393912
0.0384213
0.0374427
0.0364601
0.0354778
0.0344988
0.0335263
0.0325627
0.0316109
0.0306734
0.0297529
0.0288521
0.0279738
0.0271204
0.0262947
0.0254988
0.0247351
0.0240056
0.023312
0.022656
0.0220389
0.021462
0.0209263
0.0204328
0.0199822
0.0195752
0.0192123
0.0188939
0.0186205
0.0183922
0.0182094
0.0180722
0.0179805
0.0179346
0.025027
0.0250912
0.0252193
0.0254113
0.0256671
0.0259864
0.026369
0.0268144
0.0273222
0.0278918
0.0285224
0.0292131
0.0299629
0.0307707
0.0316347
0.0325535
0.033525
0.034547
0.0356169
0.036732
0.0378891
0.039085
0.040316
0.0415783
0.0428683
0.0441819
0.0455155
0.0468654
0.048228
0.0495998
0.0509769
0.0523552
0.0537292
0.0550923
0.0564362
0.0577512
0.0590264
0.0602513
0.0614161
0.0625133
0.0635392
0.0644946
0.0653814
0.0661954
0.0669218
0.0675388
0.0680302
0.068391
0.0686251
0.0687397
0.0687397
0.0686251
0.068391
0.0680302
0.0675388
0.0669218
0.0661954
0.0653814
0.0644946
0.0635392
0.0625133
0.0614161
0.0602513
0.0590264
0.0577512
0.0564362
0.0550923
0.0537292
0.0523552
0.0509769
0.0495998
0.048228
0.0468654
0.0455155
0.0441819
0.0428682
0.0415783
0.040316
0.039085
0.0378891
0.036732
0.0356169
0.0345469
0.0335249
0.0325535
0.0316347
0.0307706
0.0299629
0.0292131
0.0285224
0.0278918
0.0273222
0.0268144
0.026369
0.0259864
0.025667
0.0254112
0.0252192
0.0250912
0.025027
0.032038
0.0321203
0.0322849
0.0325315
0.03286
0.0332702
0.0337616
0.0343338
0.0349862
0.035718
0.0365283
0.0374161
0.0383801
0.0394185
0.0405297
0.0417114
0.0429612
0.0442763
0.0456533
0.0470886
0.0485783
0.0501179
0.0517028
0.0533281
0.0549887
0.0566796
0.0583959
0.060133
0.0618863
0.0636519
0.0654253
0.0672016
0.0689748
0.0707364
0.0724758
0.0741793
0.0758318
0.0774179
0.0789234
0.0803369
0.0816527
0.0828773
0.0840225
0.0850894
0.0860529
0.0868688
0.0875078
0.0879662
0.0882568
0.0883968
0.0883968
0.0882569
0.0879662
0.0875078
0.0868689
0.0860529
0.0850894
0.0840225
0.0828773
0.0816527
0.0803369
0.0789235
0.0774179
0.0758319
0.0741793
0.0724758
0.0707364
0.0689747
0.0672016
0.0654253
0.0636519
0.0618863
0.0601329
0.0583959
0.0566795
0.0549886
0.053328
0.0517028
0.0501178
0.0485782
0.0470886
0.0456532
0.0442762
0.0429612
0.0417114
0.0405297
0.0394185
0.0383801
0.0374161
0.0365283
0.035718
0.0349862
0.0343337
0.0337616
0.0332702
0.03286
0.0325314
0.0322848
0.0321203
0.032038
0.0389446
0.039045
0.0392458
0.0395468
0.0399477
0.0404483
0.0410482
0.0417467
0.0425433
0.043437
0.0444268
0.0455113
0.0466891
0.0479583
0.0493167
0.0507617
0.0522904
0.0538992
0.0555842
0.0573411
0.0591648
0.0610498
0.0629905
0.0649804
0.0670134
0.0690831
0.0711832
0.0733083
0.075453
0.0776129
0.0797836
0.0819605
0.0841373
0.0863046
0.0884491
0.0905527
0.0925943
0.0945522
0.0964068
0.0981387
0.0997352
0.101214
0.102614
0.103957
0.1052
0.106242
0.107031
0.107573
0.107902
0.108056
0.108056
0.107902
0.107573
0.107031
0.106242
0.1052
0.103957
0.102614
0.101214
0.0997352
0.0981388
0.0964068
0.0945522
0.0925944
0.0905527
0.0884491
0.0863046
0.0841373
0.0819605
0.0797836
0.0776129
0.075453
0.0733082
0.0711832
0.069083
0.0670134
0.0649804
0.0629904
0.0610498
0.0591647
0.057341
0.0555842
0.0538992
0.0522903
0.0507617
0.0493167
0.0479583
0.0466891
0.0455113
0.0444267
0.043437
0.0425433
0.0417467
0.0410481
0.0404483
0.0399477
0.0395467
0.0392457
0.039045
0.0389446
0.0457237
0.0458421
0.0460789
0.046434
0.0469069
0.0474975
0.0482053
0.0490297
0.0499699
0.0510249
0.0521936
0.0534745
0.054866
0.0563657
0.0579714
0.05968
0.061488
0.0633915
0.0653858
0.0674658
0.0696254
0.0718581
0.0741568
0.0765138
0.0789214
0.0813717
0.0838571
0.0863709
0.088907
0.091461
0.0940292
0.0966083
0.0991932
0.101775
0.104338
0.106858
0.109306
0.111651
0.11387
0.115929
0.117785
0.119476
0.121107
0.122764
0.124384
0.125704
0.126634
0.127223
0.127555
0.127701
0.127701
0.127555
0.127223
0.126634
0.125704
0.124384
0.122764
0.121108
0.119476
0.117785
0.115929
0.11387
0.111651
0.109306
0.106858
0.104338
0.101775
0.0991932
0.0966082
0.0940292
0.091461
0.088907
0.0863708
0.0838571
0.0813717
0.0789214
0.0765138
0.0741567
0.0718581
0.0696254
0.0674658
0.0653858
0.0633915
0.061488
0.0596799
0.0579714
0.0563657
0.0548659
0.0534745
0.0521936
0.0510249
0.0499699
0.0490297
0.0482053
0.0474975
0.0469069
0.0464339
0.0460789
0.0458421
0.0457236
0.0523525
0.0524888
0.0527614
0.0531701
0.0537146
0.0543947
0.0552097
0.0561592
0.0572423
0.0584579
0.0598049
0.0612816
0.0628862
0.0646163
0.0664692
0.0684416
0.0705296
0.0727288
0.0750339
0.0774388
0.0799366
0.0825197
0.0851795
0.0879067
0.0906919
0.0935253
0.0963977
0.0993008
0.102228
0.105174
0.108137
0.111118
0.114115
0.117121
0.12012
0.123081
0.125962
0.12871
0.131323
0.133749
0.13582
0.137614
0.139389
0.141416
0.143677
0.145357
0.146381
0.14693
0.147191
0.147291
0.147291
0.147191
0.14693
0.146381
0.145357
0.143677
0.141416
0.139389
0.137614
0.13582
0.133749
0.131323
0.12871
0.125962
0.123081
0.12012
0.117121
0.114115
0.111118
0.108137
0.105174
0.102228
0.0993007
0.0963977
0.0935253
0.0906918
0.0879067
0.0851795
0.0825197
0.0799366
0.0774388
0.0750339
0.0727288
0.0705296
0.0684416
0.0664692
0.0646163
0.0628862
0.0612816
0.0598049
0.0584579
0.0572423
0.0561592
0.0552097
0.0543946
0.0537146
0.05317
0.0527614
0.0524887
0.0523524
0.0588084
0.0589625
0.0592705
0.0597324
0.0603478
0.0611166
0.0620381
0.0631118
0.0643368
0.0657122
0.0672365
0.0689082
0.0707253
0.0726853
0.0747852
0.0770216
0.0793902
0.0818861
0.0845035
0.0872356
0.0900746
0.0930114
0.0960361
0.0991376
0.102304
0.105524
0.108786
0.112079
0.115395
0.118729
0.122082
0.125459
0.128867
0.132306
0.135768
0.139206
0.142563
0.145714
0.148763
0.15172
0.153925
0.155559
0.157201
0.159614
0.163323
0.165435
0.16637
0.166692
0.166755
0.166745
0.166745
0.166755
0.166692
0.16637
0.165435
0.163323
0.159614
0.157201
0.155559
0.153925
0.15172
0.148763
0.145714
0.142563
0.139206
0.135768
0.132306
0.128867
0.125459
0.122082
0.118729
0.115395
0.112079
0.108786
0.105524
0.102304
0.0991376
0.0960361
0.0930114
0.0900746
0.0872356
0.0845036
0.0818862
0.0793903
0.0770216
0.0747853
0.0726853
0.0707253
0.0689082
0.0672365
0.0657121
0.0643368
0.0631117
0.062038
0.0611165
0.0603478
0.0597323
0.0592704
0.0589624
0.0588083
0.065069
0.0652406
0.0655837
0.0660982
0.0667838
0.0676404
0.0686673
0.0698641
0.0712299
0.0727638
0.0744644
0.07633
0.0783587
0.0805479
0.0828945
0.0853948
0.0880444
0.090838
0.0937694
0.0968312
0.100015
0.103309
0.106704
0.110185
0.113738
0.11735
0.121005
0.124689
0.128391
0.132105
0.135835
0.139594
0.143405
0.147281
0.15124
0.155208
0.159157
0.1626
0.166069
0.170209
0.17236
0.173253
0.173996
0.176264
0.184306
0.186426
0.186706
0.186446
0.18612
0.185922
0.185922
0.18612
0.186446
0.186706
0.186426
0.184306
0.176264
0.173996
0.173253
0.17236
0.170209
0.166069
0.1626
0.159157
0.155208
0.15124
0.147281
0.143405
0.139594
0.135835
0.132105
0.128391
0.124689
0.121005
0.11735
0.113738
0.110185
0.106704
0.103309
0.100015
0.0968313
0.0937695
0.0908381
0.0880445
0.0853948
0.0828945
0.0805479
0.0783588
0.0763301
0.0744643
0.0727638
0.0712299
0.069864
0.0686673
0.0676403
0.0667837
0.0660981
0.0655836
0.0652405
0.0650689
0.0711121
0.071301
0.0716787
0.0722451
0.073
0.0739432
0.0750743
0.0763929
0.077898
0.0795889
0.0814643
0.0835225
0.0857616
0.0881789
0.0907714
0.0935353
0.0964661
0.0995583
0.102805
0.1062
0.109731
0.113389
0.11716
0.121027
0.124975
0.128984
0.133038
0.137118
0.141205
0.145286
0.149371
0.153481
0.157673
0.16196
0.166481
0.170998
0.176015
0.179214
0.182446
0.190423
0.191784
0.190823
0.188987
0.186859
0.184732
0.182774
0.181098
0.179781
0.178876
0.178415
0.178415
0.178876
0.179781
0.181098
0.182774
0.184732
0.186859
0.188987
0.190823
0.191784
0.190423
0.182446
0.179214
0.176015
0.170998
0.166481
0.16196
0.157673
0.153481
0.149371
0.145286
0.141205
0.137118
0.133038
0.128984
0.124975
0.121027
0.11716
0.113389
0.109731
0.1062
0.102805
0.0995584
0.0964662
0.0935354
0.0907715
0.0881789
0.0857616
0.0835226
0.0814643
0.0795889
0.077898
0.0763928
0.0750743
0.0739432
0.073
0.072245
0.0716786
0.0713009
0.0711121
0.076916
0.0771219
0.0775336
0.0781511
0.0789742
0.0800027
0.0812365
0.0826751
0.0843178
0.0861639
0.0882122
0.0904612
0.092909
0.095553
0.0983903
0.101417
0.104629
0.10802
0.111584
0.115313
0.119198
0.123225
0.127379
0.131642
0.135993
0.14041
0.144873
0.14936
0.153833
0.158263
0.162673
0.167069
0.171617
0.176166
0.181478
0.186032
0.194421
0.195518
0.193792
0.190771
0.187043
0.182784
0.177784
0.170973
0.158509
0.152363
0.148656
0.146231
0.144714
0.143977
0.143977
0.144714
0.146231
0.148656
0.152363
0.158509
0.170973
0.177784
0.182784
0.187043
0.190771
0.193792
0.195518
0.194421
0.186032
0.181478
0.176166
0.171617
0.167069
0.162673
0.158263
0.153833
0.14936
0.144873
0.14041
0.135993
0.131642
0.127379
0.123225
0.119198
0.115313
0.111584
0.10802
0.104629
0.101417
0.0983904
0.0955531
0.092909
0.0904612
0.0882123
0.086164
0.0843179
0.0826751
0.0812365
0.0800028
0.0789742
0.0781511
0.0775336
0.0771219
0.076916
0.0824593
0.0826818
0.0831269
0.0837944
0.0846844
0.0857968
0.0871314
0.088688
0.0904661
0.0924651
0.0946839
0.0971214
0.0997758
0.102645
0.105725
0.109013
0.112505
0.116195
0.120077
0.124144
0.128386
0.132789
0.137338
0.142008
0.146774
0.151609
0.156495
0.161414
0.166293
0.17104
0.175758
0.180266
0.185308
0.18935
0.196958
0.196947
0.193635
0.18816
0.179948
0.165343
0.156354
0.149014
0.141925
0.134284
0.125711
0.119268
0.11469
0.111536
0.109538
0.108567
0.108567
0.109538
0.111535
0.11469
0.119268
0.125711
0.134284
0.141925
0.149014
0.156354
0.165343
0.179948
0.18816
0.193635
0.196947
0.196958
0.18935
0.185308
0.180266
0.175758
0.17104
0.166293
0.161414
0.156495
0.151609
0.146774
0.142008
0.137338
0.132789
0.128386
0.124144
0.120077
0.116195
0.112505
0.109013
0.105725
0.102645
0.0997758
0.0971215
0.094684
0.0924651
0.0904661
0.088688
0.0871314
0.0857968
0.0846844
0.0837944
0.0831269
0.0826819
0.0824593
0.0877211
0.0879599
0.0884375
0.0891539
0.0901092
0.0913035
0.0927368
0.0944089
0.0963198
0.0984689
0.100856
0.103479
0.106337
0.109428
0.112749
0.116297
0.120067
0.124055
0.128255
0.132661
0.137263
0.142052
0.147007
0.152102
0.157298
0.162559
0.167877
0.17329
0.178654
0.183606
0.188801
0.192666
0.199723
0.198682
0.193576
0.184677
0.168532
0.157064
0.146033
0.134038
0.12377
0.114757
0.106393
0.0983127
0.0905813
0.0841185
0.0791183
0.0755032
0.073161
0.07201
0.0720101
0.0731609
0.0755032
0.0791182
0.0841185
0.0905813
0.0983126
0.106393
0.114757
0.12377
0.134038
0.146033
0.157064
0.168532
0.184677
0.193576
0.198682
0.199723
0.192666
0.188801
0.183606
0.178654
0.17329
0.167877
0.162559
0.157298
0.152102
0.147007
0.142052
0.137263
0.132661
0.128255
0.124055
0.120067
0.116297
0.112749
0.109428
0.106337
0.103479
0.100856
0.098469
0.0963198
0.094409
0.0927369
0.0913036
0.0901093
0.0891539
0.0884375
0.0879599
0.0877211
0.0926809
0.0929355
0.0934447
0.0942086
0.0952275
0.0965016
0.0980309
0.0998158
0.101856
0.104152
0.106703
0.109509
0.112567
0.115877
0.119436
0.123241
0.127287
0.13157
0.136086
0.140829
0.145796
0.150977
0.156357
0.161904
0.167556
0.173236
0.178939
0.184975
0.191179
0.195665
0.202898
0.20159
0.195756
0.185598
0.16751
0.153187
0.138494
0.12529
0.112856
0.1008
0.0897375
0.079671
0.0704117
0.0618377
0.0540408
0.047373
0.0420356
0.0380779
0.0354756
0.0341877
0.0341877
0.0354756
0.0380779
0.0420355
0.047373
0.0540407
0.0618377
0.0704116
0.079671
0.0897375
0.1008
0.112856
0.12529
0.138494
0.153187
0.16751
0.185598
0.195756
0.20159
0.202898
0.195665
0.191179
0.184975
0.178939
0.173236
0.167556
0.161904
0.156357
0.150977
0.145796
0.140829
0.136086
0.13157
0.127287
0.123241
0.119436
0.115877
0.112567
0.109509
0.106703
0.104152
0.101856
0.0998159
0.098031
0.0965016
0.0952276
0.0942087
0.0934447
0.0929355
0.092681
0.097319
0.0975889
0.0981286
0.0989385
0.100019
0.10137
0.102992
0.104887
0.107053
0.109492
0.112203
0.115186
0.118441
0.121966
0.125759
0.129817
0.134135
0.13871
0.143537
0.148614
0.153941
0.15952
0.165346
0.171394
0.177569
0.183657
0.189425
0.196233
0.205148
0.204694
0.199056
0.188558
0.169638
0.153983
0.137425
0.121837
0.106759
0.0925557
0.0791315
0.0664149
0.0545734
0.043657
0.0336371
0.024491
0.0162878
0.00922402
0.00350794
-0.000761906
-0.00357967
-0.00497601
-0.00497602
-0.0035797
-0.000761938
0.00350791
0.00922399
0.0162878
0.0244909
0.033637
0.043657
0.0545734
0.0664149
0.0791314
0.0925556
0.106759
0.121837
0.137425
0.153983
0.169638
0.188558
0.199056
0.204694
0.205148
0.196233
0.189425
0.183657
0.177569
0.171394
0.165346
0.15952
0.153941
0.148614
0.143537
0.13871
0.134136
0.129817
0.12576
0.121967
0.118441
0.115186
0.112203
0.109492
0.107053
0.104887
0.102993
0.10137
0.100019
0.0989386
0.0981287
0.0975889
0.0973191
0.101616
0.101901
0.10247
0.103324
0.104463
0.105889
0.107601
0.1096
0.111888
0.114465
0.117331
0.120488
0.123934
0.12767
0.131692
0.135999
0.140585
0.145446
0.150576
0.155976
0.161651
0.167619
0.173907
0.180534
0.187433
0.194148
0.198609
0.205105
0.202011
0.192424
0.173601
0.157488
0.140004
0.123044
0.106169
0.0897979
0.0739938
0.0589068
0.0445838
0.0310585
0.0184054
0.00668379
-0.0040593
-0.013833
-0.0226265
-0.0302841
-0.0364688
-0.0410503
-0.0440487
-0.0455263
-0.0455263
-0.0440487
-0.0410504
-0.0364688
-0.0302842
-0.0226265
-0.0138331
-0.00405936
0.00668374
0.0184054
0.0310584
0.0445838
0.0589067
0.0739937
0.0897978
0.106168
0.123044
0.140003
0.157488
0.1736
0.192424
0.202011
0.205105
0.198609
0.194148
0.187433
0.180534
0.173907
0.167619
0.161651
0.155976
0.150576
0.145446
0.140585
0.135999
0.131692
0.12767
0.123934
0.120488
0.117331
0.114465
0.111888
0.1096
0.107601
0.105889
0.104463
0.103324
0.10247
0.101901
0.101616
0.105554
0.105853
0.10645
0.107346
0.108542
0.110038
0.111836
0.113936
0.11634
0.119049
0.122065
0.125389
0.129021
0.132961
0.137208
0.14176
0.14661
0.151751
0.157175
0.162878
0.168872
0.17519
0.181907
0.189165
0.197228
0.206626
0.20548
0.197092
0.178892
0.162932
0.145181
0.127563
0.109642
0.0918467
0.0742558
0.057066
0.0404084
0.0244136
0.00917944
-0.00520927
-0.0187144
-0.031271
-0.0427121
-0.0531097
-0.0626359
-0.071213
-0.0779872
-0.0828535
-0.0859655
-0.0874791
-0.0874791
-0.0859655
-0.0828535
-0.0779872
-0.071213
-0.062636
-0.0531097
-0.0427122
-0.0312711
-0.0187145
-0.00520937
0.00917934
0.0244136
0.0404083
0.0570659
0.0742557
0.0918466
0.109642
0.127563
0.145181
0.162932
0.178892
0.197092
0.205479
0.206626
0.197228
0.189165
0.181907
0.17519
0.168872
0.162878
0.157175
0.151751
0.14661
0.14176
0.137208
0.132961
0.129021
0.125389
0.122065
0.119049
0.11634
0.113936
0.111836
0.110038
0.108542
0.107346
0.10645
0.105853
0.105555
0.109116
0.109428
0.110051
0.110987
0.112236
0.1138
0.115678
0.117874
0.120388
0.123223
0.126382
0.129865
0.133675
0.137814
0.14228
0.147073
0.152184
0.157603
0.163312
0.169298
0.175562
0.18214
0.18913
0.19674
0.205421
0.203176
0.193119
0.17243
0.15328
0.134999
0.116426
0.0977624
0.0790041
0.0603197
0.0418434
0.0237288
0.00611191
-0.0108647
-0.0270724
-0.0423413
-0.0567434
-0.070283
-0.0823334
-0.093167
-0.10349
-0.113826
-0.121285
-0.126275
-0.12934
-0.130803
-0.130803
-0.12934
-0.126275
-0.121285
-0.113826
-0.10349
-0.093167
-0.0823334
-0.0702831
-0.0567435
-0.0423414
-0.0270725
-0.0108648
0.00611183
0.0237287
0.0418434
0.0603196
0.079004
0.0977623
0.116426
0.134999
0.15328
0.17243
0.193119
0.203176
0.205421
0.196739
0.18913
0.18214
0.175562
0.169298
0.163312
0.157603
0.152184
0.147073
0.14228
0.137814
0.133675
0.129865
0.126382
0.123224
0.120388
0.117874
0.115678
0.1138
0.112237
0.110987
0.110051
0.109428
0.109116
0.112285
0.112609
0.113257
0.11423
0.115529
0.117155
0.11911
0.121395
0.124013
0.126966
0.130258
0.133892
0.137872
0.1422
0.14688
0.15191
0.157284
0.162984
0.168981
0.175234
0.181719
0.188447
0.195485
0.202977
0.198073
0.181075
0.164936
0.145991
0.126586
0.107174
0.0876063
0.0679269
0.0481912
0.0285113
0.0090234
-0.0101251
-0.0288179
-0.0468795
-0.0642068
-0.0802609
-0.0955343
-0.110663
-0.123032
-0.13358
-0.144158
-0.159131
-0.166853
-0.171415
-0.174106
-0.175376
-0.175376
-0.174106
-0.171415
-0.166853
-0.159131
-0.144158
-0.13358
-0.123032
-0.110664
-0.0955343
-0.080261
-0.0642069
-0.0468796
-0.028818
-0.0101252
0.00902329
0.0285112
0.0481912
0.0679269
0.0876062
0.107174
0.126586
0.145991
0.164936
0.181075
0.198073
0.202977
0.195485
0.188447
0.181719
0.175234
0.168981
0.162984
0.157284
0.15191
0.14688
0.1422
0.137872
0.133892
0.130258
0.126966
0.124013
0.121395
0.11911
0.117156
0.11553
0.114231
0.113257
0.112609
0.112285
0.115045
0.115381
0.116052
0.11706
0.118405
0.120089
0.122114
0.124481
0.127195
0.130257
0.133673
0.137447
0.141585
0.146092
0.150976
0.15624
0.161882
0.167883
0.174193
0.180725
0.187405
0.194199
0.201125
0.195152
0.176366
0.157866
0.139336
0.119814
0.0997328
0.0793662
0.0587882
0.0380674
0.0172714
-0.00351139
-0.0241291
-0.0443995
-0.0643155
-0.0835384
-0.102498
-0.118821
-0.134306
-0.153618
-0.165348
-0.173742
-0.180195
-0.185244
-0.189127
-0.191967
-0.19383
-0.194753
-0.194753
-0.19383
-0.191967
-0.189127
-0.185244
-0.180195
-0.173742
-0.165348
-0.153618
-0.134306
-0.118821
-0.102498
-0.0835385
-0.0643156
-0.0443996
-0.0241292
-0.00351146
0.0172713
0.0380673
0.0587881
0.0793662
0.0997328
0.119814
0.139336
0.157866
0.176366
0.195152
0.201125
0.194199
0.187405
0.180725
0.174193
0.167883
0.161882
0.15624
0.150976
0.146092
0.141585
0.137447
0.133673
0.130257
0.127195
0.124482
0.122114
0.120089
0.118405
0.11706
0.116052
0.115381
0.115045
0.117383
0.117729
0.118421
0.119461
0.120848
0.122585
0.124674
0.127117
0.129917
0.133078
0.136606
0.140507
0.144788
0.149459
0.154532
0.16002
0.165937
0.172277
0.178972
0.185845
0.192738
0.199564
0.193211
0.173696
0.154134
0.134479
0.114546
0.0940423
0.0730416
0.0516765
0.0300497
0.00825074
-0.0136629
-0.0356696
-0.0575688
-0.0789378
-0.100386
-0.120311
-0.143248
-0.158017
-0.169025
-0.177718
-0.184545
-0.189378
-0.191163
-0.186041
-0.185958
-0.187004
-0.188001
-0.18856
-0.18856
-0.188001
-0.187004
-0.185958
-0.186041
-0.191163
-0.189378
-0.184545
-0.177718
-0.169025
-0.158017
-0.143248
-0.120311
-0.100386
-0.0789379
-0.0575689
-0.0356697
-0.013663
0.00825065
0.0300497
0.0516765
0.0730415
0.0940423
0.114546
0.134479
0.154134
0.173696
0.193211
0.199564
0.192738
0.185845
0.178972
0.172277
0.165937
0.16002
0.154532
0.149459
0.144788
0.140507
0.136606
0.133078
0.129917
0.127117
0.124674
0.122585
0.120848
0.119461
0.118421
0.117729
0.117383
0.119285
0.119641
0.120352
0.12142
0.122845
0.12463
0.126776
0.129286
0.132163
0.135412
0.139039
0.14305
0.147456
0.152269
0.157507
0.163196
0.169381
0.176111
0.183356
0.19071
0.197886
0.191664
0.172018
0.152058
0.131794
0.111198
0.0901842
0.0686567
0.0466342
0.0241998
0.00146676
-0.0214356
-0.0444562
-0.0678544
-0.0914245
-0.113251
-0.1378
-0.153864
-0.165739
-0.174527
-0.179596
-0.177209
-0.179253
-0.181574
-0.182548
-0.181501
-0.181364
-0.181796
-0.182311
-0.182628
-0.182628
-0.182311
-0.181796
-0.181364
-0.181501
-0.182548
-0.181574
-0.179253
-0.177209
-0.179596
-0.174527
-0.165739
-0.153864
-0.1378
-0.113251
-0.0914246
-0.0678545
-0.0444563
-0.0214357
0.0014667
0.0241998
0.0466342
0.0686566
0.0901842
0.111198
0.131794
0.152058
0.172018
0.191664
0.197886
0.19071
0.183356
0.176111
0.169381
0.163196
0.157507
0.152269
0.147456
0.14305
0.139039
0.135412
0.132163
0.129286
0.126776
0.12463
0.122846
0.12142
0.120352
0.119641
0.119285
0.120741
0.121104
0.121833
0.122926
0.124385
0.126212
0.128408
0.130976
0.13392
0.137244
0.140955
0.145059
0.149568
0.154495
0.159859
0.165694
0.172081
0.17922
0.187403
0.195511
0.189991
0.170752
0.150914
0.130528
0.109624
0.0882011
0.066234
0.0436953
0.0206009
-0.00298318
-0.0269179
-0.0509408
-0.0747741
-0.0997343
-0.126855
-0.144639
-0.15728
-0.16516
-0.16486
-0.168285
-0.171149
-0.171983
-0.173395
-0.17483
-0.175665
-0.175767
-0.175919
-0.176221
-0.176537
-0.176731
-0.176731
-0.176537
-0.176221
-0.175919
-0.175767
-0.175665
-0.17483
-0.173395
-0.171983
-0.171149
-0.168285
-0.16486
-0.16516
-0.15728
-0.144639
-0.126856
-0.0997344
-0.0747741
-0.0509409
-0.0269179
-0.00298318
0.0206009
0.0436953
0.0662339
0.0882011
0.109624
0.130528
0.150914
0.170752
0.189991
0.195511
0.187403
0.17922
0.172081
0.165694
0.159859
0.154495
0.149568
0.145059
0.140955
0.137244
0.13392
0.130976
0.128408
0.126212
0.124385
0.122926
0.121833
0.121105
0.120741
0.121738
0.122109
0.122852
0.123967
0.125456
0.127319
0.129558
0.132177
0.135177
0.138563
0.142342
0.14652
0.151109
0.156121
0.161566
0.167453
0.173829
0.181067
0.191289
0.187503
0.169387
0.150217
0.13017
0.109358
0.0878428
0.0656521
0.0427911
0.0192588
-0.00493917
-0.0297769
-0.05514
-0.0805253
-0.103819
-0.129269
-0.145217
-0.154737
-0.155072
-0.158179
-0.159982
-0.162328
-0.164454
-0.165906
-0.16724
-0.168413
-0.169243
-0.169712
-0.170056
-0.170365
-0.170617
-0.17076
-0.17076
-0.170617
-0.170365
-0.170056
-0.169712
-0.169243
-0.168413
-0.16724
-0.165906
-0.164454
-0.162328
-0.159982
-0.158179
-0.155073
-0.154737
-0.145218
-0.129269
-0.103819
-0.0805253
-0.05514
-0.029777
-0.00493922
0.0192588
0.0427911
0.0656521
0.0878428
0.109358
0.13017
0.150217
0.169387
0.187503
0.191289
0.181067
0.173829
0.167453
0.161566
0.156121
0.15111
0.146521
0.142342
0.138564
0.135177
0.132177
0.129559
0.127319
0.125456
0.123968
0.122852
0.12211
0.121738
0.122269
0.122647
0.123402
0.124536
0.12605
0.127944
0.130219
0.132879
0.135925
0.139361
0.143192
0.147425
0.152072
0.157147
0.162651
0.168529
0.174507
0.179706
0.182759
0.167404
0.149622
0.130374
0.110034
0.0887643
0.066644
0.0437125
0.0199925
-0.0045042
-0.0297955
-0.0559642
-0.0832201
-0.112044
-0.130514
-0.141893
-0.143574
-0.147574
-0.149833
-0.152238
-0.154301
-0.156332
-0.158173
-0.159688
-0.160988
-0.162081
-0.162925
-0.163527
-0.163972
-0.164311
-0.164552
-0.164679
-0.164679
-0.164552
-0.164311
-0.163972
-0.163527
-0.162925
-0.162081
-0.160988
-0.159688
-0.158173
-0.156332
-0.154301
-0.152239
-0.149833
-0.147574
-0.143574
-0.141893
-0.130514
-0.112044
-0.0832202
-0.0559643
-0.0297955
-0.00450422
0.0199925
0.0437125
0.066644
0.0887642
0.110034
0.130374
0.149622
0.167404
0.182759
0.179706
0.174507
0.16853
0.162651
0.157147
0.152072
0.147425
0.143192
0.139361
0.135925
0.132879
0.13022
0.127944
0.12605
0.124536
0.123403
0.122647
0.12227
0.122327
0.12271
0.123475
0.124625
0.126159
0.128078
0.130384
0.133077
0.13616
0.139632
0.143499
0.147767
0.152449
0.157572
0.16318
0.169311
0.175756
0.180268
0.166223
0.149522
0.131139
0.11147
0.0907021
0.0689284
0.0461963
0.0225351
-0.00202044
-0.0274271
-0.0536908
-0.0809412
-0.109568
-0.127526
-0.137884
-0.137787
-0.139363
-0.141903
-0.144199
-0.146394
-0.148406
-0.15028
-0.151974
-0.15344
-0.154699
-0.155756
-0.156605
-0.157258
-0.157752
-0.158116
-0.15836
-0.158484
-0.158484
-0.15836
-0.158116
-0.157752
-0.157258
-0.156605
-0.155756
-0.154699
-0.153441
-0.151974
-0.15028
-0.148406
-0.146394
-0.144199
-0.141903
-0.139363
-0.137787
-0.137884
-0.127526
-0.109568
-0.0809413
-0.0536908
-0.0274271
-0.00202048
0.0225351
0.0461962
0.0689284
0.0907021
0.11147
0.131139
0.149522
0.166223
0.180268
0.175756
0.169311
0.16318
0.157572
0.152449
0.147767
0.143499
0.139632
0.13616
0.133078
0.130384
0.128078
0.126159
0.124625
0.123476
0.12271
0.122327
0.121904
0.122291
0.123065
0.124227
0.125778
0.127718
0.130048
0.132768
0.135877
0.139376
0.143264
0.147543
0.152223
0.15734
0.163
0.16958
0.178724
0.172981
0.152136
0.133142
0.113786
0.0935393
0.0722822
0.0499893
0.0266492
0.00225905
-0.0231388
-0.0494113
-0.0764779
-0.104379
-0.120198
-0.124194
-0.129285
-0.131768
-0.133952
-0.136241
-0.138431
-0.140499
-0.142415
-0.144178
-0.145768
-0.14717
-0.148382
-0.149408
-0.150251
-0.15092
-0.151435
-0.151812
-0.152062
-0.152186
-0.152186
-0.152062
-0.151813
-0.151435
-0.15092
-0.150251
-0.149408
-0.148382
-0.14717
-0.145769
-0.144178
-0.142415
-0.140499
-0.138432
-0.136241
-0.133952
-0.131768
-0.129285
-0.124194
-0.120198
-0.104379
-0.076478
-0.0494113
-0.0231388
0.00225903
0.0266492
0.0499893
0.0722822
0.0935393
0.113786
0.133143
0.152136
0.172981
0.178724
0.16958
0.163
0.15734
0.152223
0.147543
0.143264
0.139376
0.135878
0.132768
0.130048
0.127718
0.125778
0.124227
0.123065
0.122291
0.121904
0.120997
0.121387
0.122167
0.123339
0.124902
0.126857
0.129206
0.131948
0.135079
0.138597
0.142495
0.146765
0.151398
0.156391
0.161714
0.167081
0.170175
0.154401
0.136015
0.116969
0.0971985
0.0765218
0.0548327
0.0320649
0.00815424
-0.0169708
-0.0433058
-0.0704849
-0.0982733
-0.113518
-0.116249
-0.119545
-0.123066
-0.125824
-0.128213
-0.130457
-0.132565
-0.134536
-0.136359
-0.138028
-0.139534
-0.140871
-0.142035
-0.143028
-0.143855
-0.144522
-0.145041
-0.145423
-0.145674
-0.145799
-0.145799
-0.145674
-0.145423
-0.145041
-0.144522
-0.143855
-0.143028
-0.142035
-0.140871
-0.139535
-0.138028
-0.136359
-0.134536
-0.132566
-0.130457
-0.128213
-0.125824
-0.123067
-0.119545
-0.116249
-0.113518
-0.0982734
-0.070485
-0.0433058
-0.0169708
0.0081542
0.0320649
0.0548327
0.0765218
0.0971984
0.116969
0.136015
0.154401
0.170175
0.167081
0.161715
0.156391
0.151399
0.146765
0.142495
0.138597
0.135079
0.131948
0.129206
0.126858
0.124902
0.123339
0.122167
0.121387
0.120997
0.119602
0.119994
0.120778
0.121955
0.123527
0.125494
0.127858
0.130617
0.133768
0.137303
0.141211
0.14547
0.150051
0.154935
0.160198
0.166654
0.154106
0.138244
0.120395
0.101391
0.081415
0.0604459
0.0384232
0.0152784
-0.00909566
-0.0349224
-0.0625203
-0.0907996
-0.10624
-0.108776
-0.111525
-0.114461
-0.1174
-0.120037
-0.12241
-0.124598
-0.126629
-0.128513
-0.130249
-0.131834
-0.133265
-0.134539
-0.135654
-0.136611
-0.137414
-0.138069
-0.138582
-0.138961
-0.139211
-0.139335
-0.139335
-0.139211
-0.138961
-0.138582
-0.138069
-0.137414
-0.136611
-0.135654
-0.134539
-0.133266
-0.131834
-0.130249
-0.128513
-0.12663
-0.124598
-0.12241
-0.120037
-0.1174
-0.114461
-0.111525
-0.108776
-0.106241
-0.0907997
-0.0625204
-0.0349224
-0.00909568
0.0152784
0.0384232
0.0604459
0.081415
0.101391
0.120395
0.138244
0.154106
0.166654
0.160198
0.154935
0.150052
0.14547
0.141211
0.137304
0.133768
0.130617
0.127858
0.125495
0.123527
0.121956
0.120778
0.119994
0.119603
0.117719
0.118111
0.118896
0.120076
0.121652
0.123625
0.125999
0.128773
0.131943
0.135503
0.139432
0.143698
0.148239
0.152924
0.157299
0.158849
0.141164
0.123913
0.105795
0.0866762
0.0665477
0.0453773
0.0231219
-0.000258133
-0.0248358
-0.0510065
-0.0809151
-0.0975908
-0.10073
-0.103619
-0.106415
-0.109172
-0.111838
-0.114316
-0.116595
-0.118699
-0.120645
-0.122443
-0.124095
-0.125601
-0.126961
-0.128174
-0.129238
-0.130157
-0.130932
-0.131567
-0.132068
-0.132439
-0.132684
-0.132806
-0.132806
-0.132684
-0.132439
-0.132068
-0.131567
-0.130932
-0.130157
-0.129238
-0.128174
-0.126961
-0.125601
-0.124095
-0.122443
-0.120646
-0.118699
-0.116595
-0.114316
-0.111838
-0.109172
-0.106415
-0.103619
-0.10073
-0.0975909