/*--------------------------------*- C++ -*----------------------------------*\
  =========                 |
  \\      /  F ield         | OpenFOAM: The Open Source CFD Toolbox
   \\    /   O peration     | Website:  https://openfoam.org
    \\  /    A nd           | Version:  7
     \\/     M anipulation  |
\*---------------------------------------------------------------------------*/
FoamFile
{
    version     2.0;
    format      ascii;
    class       volScalarField;
    location    "0.033";
    object      gradTx;
}
// * * * * * * * * * * * * * * * * * * * * * * * * * * * * * * * * * * * * * //

dimensions      [0 -1 0 1 0 0 0];

internalField   nonuniform List<scalar> 
10000
(
0.00150544
0.00451047
0.00749789
0.010456
0.0133733
0.0162382
0.0190397
0.0217667
0.0244084
0.0269546
0.0293952
0.0317205
0.0339213
0.035989
0.0379153
0.0396926
0.0413139
0.0427728
0.0440634
0.0451807
0.0461203
0.0468784
0.0474522
0.0478394
0.0480385
0.0480488
0.0478703
0.0475036
0.0469501
0.0462118
0.0452914
0.0441923
0.0429185
0.0414747
0.0398662
0.0380992
0.0361805
0.0341177
0.0319188
0.0295925
0.027148
0.0245948
0.0219427
0.0192016
0.0163824
0.0134961
0.0105546
0.00756988
0.00455434
0.00152033
-0.00151983
-0.00455383
-0.00756937
-0.0105541
-0.0134957
-0.0163819
-0.0192012
-0.0219422
-0.0245944
-0.0271476
-0.0295921
-0.0319183
-0.0341173
-0.0361801
-0.0380988
-0.0398658
-0.0414743
-0.0429182
-0.044192
-0.0452911
-0.0462115
-0.0469498
-0.0475033
-0.04787
-0.0480485
-0.0480382
-0.0478391
-0.047452
-0.0468782
-0.0461201
-0.0451805
-0.0440632
-0.0427726
-0.0413138
-0.0396925
-0.0379151
-0.0359888
-0.0339212
-0.0317203
-0.0293951
-0.0269545
-0.0244084
-0.0217666
-0.0190397
-0.0162382
-0.0133732
-0.010456
-0.00749787
-0.00451047
-0.00150545
0.00150666
0.00451405
0.00750382
0.0104643
0.0133838
0.016251
0.0190546
0.0217837
0.0244274
0.0269754
0.0294177
0.0317445
0.0339468
0.0360157
0.0379432
0.0397215
0.0413435
0.0428029
0.0440939
0.0452114
0.0461509
0.0469088
0.0474823
0.0478689
0.0480674
0.048077
0.0478976
0.04753
0.0469756
0.0462364
0.045315
0.0442149
0.0429401
0.0414952
0.0398856
0.0381174
0.0361974
0.0341332
0.0319329
0.0296054
0.0271598
0.0246057
0.0219526
0.0192107
0.0163903
0.0135026
0.0105595
0.00757325
0.00455629
0.00152097
-0.00152047
-0.00455578
-0.00757275
-0.010559
-0.0135021
-0.0163898
-0.0192102
-0.0219522
-0.0246052
-0.0271594
-0.029605
-0.0319325
-0.0341327
-0.036197
-0.038117
-0.0398852
-0.0414948
-0.0429398
-0.0442146
-0.0453147
-0.046236
-0.0469752
-0.0475297
-0.0478973
-0.0480767
-0.0480671
-0.0478687
-0.047482
-0.0469086
-0.0461507
-0.0452112
-0.0440937
-0.0428027
-0.0413433
-0.0397213
-0.037943
-0.0360156
-0.0339467
-0.0317444
-0.0294176
-0.0269753
-0.0244273
-0.0217836
-0.0190546
-0.016251
-0.0133838
-0.0104643
-0.00750381
-0.00451406
-0.00150665
0.00150903
0.00452121
0.00751569
0.0104808
0.0134049
0.0162765
0.0190844
0.0218175
0.0244651
0.0270168
0.0294625
0.0317925
0.0339976
0.0360691
0.0379988
0.0397789
0.0414024
0.0428629
0.0441546
0.0452724
0.0462118
0.0469694
0.047542
0.0479276
0.0481248
0.0481328
0.0479517
0.0475823
0.0470259
0.0462848
0.0453616
0.0442596
0.0429828
0.0415358
0.0399239
0.0381532
0.0362306
0.0341636
0.0319606
0.0296306
0.0271829
0.0246269
0.0219724
0.0192287
0.016406
0.0135155
0.0105692
0.00757978
0.00455997
0.00152215
-0.00152164
-0.00455948
-0.00757928
-0.0105687
-0.013515
-0.0164055
-0.0192282
-0.0219719
-0.0246265
-0.0271824
-0.0296301
-0.0319602
-0.0341632
-0.0362302
-0.0381528
-0.0399235
-0.0415354
-0.0429824
-0.0442592
-0.0453612
-0.0462845
-0.0470256
-0.0475819
-0.0479514
-0.0481325
-0.0481245
-0.0479274
-0.0475418
-0.0469692
-0.0462117
-0.0452722
-0.0441544
-0.0428627
-0.0414022
-0.0397787
-0.0379986
-0.036069
-0.0339975
-0.0317924
-0.0294624
-0.0270168
-0.0244651
-0.0218175
-0.0190843
-0.0162764
-0.0134048
-0.0104808
-0.00751568
-0.0045212
-0.00150903
0.0015126
0.00453187
0.00753338
0.0105054
0.0134363
0.0163145
0.0191288
0.0218681
0.0245215
0.0270787
0.0295294
0.0318641
0.0340735
0.0361487
0.0380816
0.0398644
0.0414901
0.0429522
0.0442449
0.0453631
0.0463025
0.0470593
0.0476307
0.0480146
0.0482097
0.0482153
0.0480315
0.0476593
0.0471001
0.0463561
0.04543
0.0443252
0.0430455
0.0415954
0.0399802
0.0382059
0.0362792
0.034208
0.0320007
0.0296668
0.0272158
0.0246576
0.0220013
0.0192555
0.0164296
0.0135346
0.0105832
0.00758889
0.00456493
0.00152372
-0.0015232
-0.00456444
-0.0075884
-0.0105827
-0.0135341
-0.0164292
-0.019255
-0.0220008
-0.0246572
-0.0272154
-0.0296663
-0.0320003
-0.0342075
-0.0362788
-0.0382055
-0.0399799
-0.0415951
-0.0430451
-0.0443248
-0.0454297
-0.0463557
-0.0470997
-0.047659
-0.0480312
-0.048215
-0.0482094
-0.0480144
-0.0476305
-0.0470591
-0.0463023
-0.0453629
-0.0442447
-0.042952
-0.04149
-0.0398643
-0.0380815
-0.0361486
-0.0340734
-0.031864
-0.0295293
-0.0270786
-0.0245214
-0.021868
-0.0191287
-0.0163145
-0.0134363
-0.0105054
-0.00753338
-0.00453185
-0.0015126
0.00151731
0.00454599
0.00755682
0.010538
0.0134779
0.0163649
0.0191876
0.021935
0.0245961
0.0271605
0.029618
0.0319589
0.0341738
0.036254
0.0381911
0.0399775
0.041606
0.0430702
0.0443641
0.0454828
0.0464218
0.0471776
0.0477473
0.0481288
0.0483208
0.048323
0.0481355
0.0477594
0.0471962
0.0464483
0.0455185
0.0444101
0.0431267
0.0416728
0.0400533
0.0382741
0.0363419
0.0342648
0.0320515
0.0297119
0.0272567
0.024696
0.0220386
0.0192914
0.0164617
0.01356
0.0106008
0.00759943
0.00457018
0.00152526
-0.00152473
-0.00456969
-0.00759895
-0.0106003
-0.0135595
-0.0164612
-0.019291
-0.0220382
-0.0246956
-0.0272562
-0.0297115
-0.032051
-0.0342643
-0.0363415
-0.0382737
-0.0400529
-0.0416724
-0.0431264
-0.0444097
-0.0455182
-0.046448
-0.0471959
-0.0477591
-0.0481352
-0.0483227
-0.0483206
-0.0481285
-0.047747
-0.0471774
-0.0464216
-0.0454826
-0.0443639
-0.04307
-0.0416059
-0.0399774
-0.038191
-0.0362538
-0.0341737
-0.0319587
-0.0296179
-0.0271604
-0.024596
-0.0219349
-0.0191876
-0.0163648
-0.0134779
-0.010538
-0.00755682
-0.00454597
-0.0015173
0.00152316
0.00456347
0.00758586
0.0105784
0.0135294
0.0164273
0.0192604
0.0220178
0.0246884
0.0272618
0.0297276
0.0320761
0.0342979
0.0363842
0.0383265
0.0401172
0.0417491
0.0432157
0.0445111
0.0456302
0.0465687
0.0473229
0.0478902
0.0482684
0.0484565
0.0484541
0.0482616
0.0478803
0.0473121
0.0465592
0.0456247
0.0445119
0.0432243
0.0417659
0.0401414
0.0383562
0.0364171
0.0343321
0.0321106
0.029763
0.0273018
0.0247392
0.0220835
0.0193375
0.0165036
0.0135918
0.0106205
0.00760921
0.00457386
0.00152606
-0.00152555
-0.00457335
-0.00760874
-0.01062
-0.0135913
-0.0165032
-0.0193371
-0.022083
-0.0247388
-0.0273014
-0.0297625
-0.0321101
-0.0343317
-0.0364167
-0.0383558
-0.040141
-0.0417655
-0.0432239
-0.0445116
-0.0456244
-0.0465589
-0.0473117
-0.04788
-0.0482613
-0.0484538
-0.0484562
-0.0482681
-0.0478899
-0.0473227
-0.0465685
-0.04563
-0.0445109
-0.0432155
-0.041749
-0.0401171
-0.0383264
-0.036384
-0.0342978
-0.032076
-0.0297275
-0.0272617
-0.0246883
-0.0220177
-0.0192604
-0.0164272
-0.0135294
-0.0105784
-0.00758585
-0.00456345
-0.00152315
0.00153009
0.00458424
0.00762033
0.0106264
0.0135906
0.0165013
0.0193468
0.0221161
0.0247979
0.0273819
0.0298575
0.032215
0.0344449
0.0365383
0.0384868
0.0402825
0.0419183
0.0433876
0.0446845
0.045804
0.0467415
0.0474936
0.0480576
0.0484315
0.0486144
0.048606
0.0484072
0.0480193
0.0474445
0.0466855
0.0457455
0.0446277
0.0433355
0.0418725
0.0402425
0.0384506
0.0365029
0.0344081
0.0321753
0.0298156
0.0273452
0.0247818
0.0221343
0.0193975
0.0165601
0.0136308
0.0106393
0.00761377
0.00457238
0.0015248
-0.0015243
-0.00457187
-0.00761328
-0.0106388
-0.0136303
-0.0165597
-0.0193971
-0.0221339
-0.0247814
-0.0273447
-0.0298152
-0.0321749
-0.0344077
-0.0365026
-0.0384502
-0.0402422
-0.0418721
-0.0433352
-0.0446273
-0.0457451
-0.0466851
-0.0474441
-0.048019
-0.0484069
-0.0486058
-0.0486141
-0.0484313
-0.0480574
-0.0474934
-0.0467413
-0.0458037
-0.0446843
-0.0433874
-0.0419181
-0.0402824
-0.0384866
-0.0365381
-0.0344448
-0.0322149
-0.0298574
-0.0273818
-0.0247979
-0.022116
-0.0193468
-0.0165012
-0.0135906
-0.0106264
-0.00762031
-0.00458422
-0.00153008
0.00153808
0.00460815
0.00766003
0.0106816
0.0136611
0.0165865
0.0194463
0.0222292
0.024924
0.02752
0.0300069
0.0323747
0.0346138
0.0367153
0.0386707
0.040472
0.0421121
0.0435844
0.0448828
0.0460023
0.0469385
0.0476877
0.0482475
0.0486158
0.048792
0.048776
0.048569
0.0481726
0.0475896
0.046823
0.0458765
0.0447535
0.043457
0.0419899
0.0403549
0.0385555
0.0365976
0.0344907
0.0322438
0.0298644
0.0273758
0.0248123
0.0221883
0.0194819
0.0166434
0.0136782
0.0106503
0.00760421
0.00455909
0.00151908
-0.00151859
-0.00455858
-0.0076037
-0.0106498
-0.0136777
-0.0166429
-0.0194815
-0.0221878
-0.0248118
-0.0273754
-0.029864
-0.0322434
-0.0344903
-0.0365973
-0.0385551
-0.0403545
-0.0419896
-0.0434567
-0.0447532
-0.0458762
-0.0468227
-0.0475892
-0.0481723
-0.0485687
-0.0487758
-0.0487917
-0.0486156
-0.0482472
-0.0476875
-0.0469382
-0.0460021
-0.0448826
-0.0435842
-0.042112
-0.0404719
-0.0386705
-0.0367152
-0.0346137
-0.0323746
-0.0300068
-0.02752
-0.0249239
-0.0222291
-0.0194463
-0.0165865
-0.013661
-0.0106816
-0.00766
-0.00460813
-0.00153807
0.00154706
0.00463507
0.00770472
0.0107439
0.0137404
0.0166824
0.0195582
0.0223564
0.0250657
0.0276754
0.0301748
0.032554
0.0348034
0.0369139
0.0388768
0.0406843
0.0423291
0.0438043
0.0451041
0.0462233
0.0471575
0.047903
0.0484573
0.0488186
0.0489864
0.0489608
0.0487433
0.0483361
0.0477426
0.0469668
0.0460127
0.0448843
0.0435846
0.0421151
0.0404765
0.0386699
0.0366992
0.0345787
0.0323182
0.0299047
0.0273731
0.0248044
0.0222356
0.0196198
0.0167856
0.0137327
0.0106364
0.00756303
0.00452238
0.00150493
-0.00150444
-0.0045219
-0.00756252
-0.0106359
-0.0137322
-0.0167851
-0.0196193
-0.0222352
-0.024804
-0.0273727
-0.0299043
-0.0323178
-0.0345783
-0.0366988
-0.0386695
-0.0404761
-0.0421148
-0.0435842
-0.044884
-0.0460124
-0.0469664
-0.0477423
-0.0483358
-0.048743
-0.0489605
-0.0489861
-0.0488183
-0.048457
-0.0479028
-0.0471572
-0.0462231
-0.0451039
-0.0438041
-0.0423289
-0.0406842
-0.0388767
-0.0369137
-0.0348033
-0.0325539
-0.0301747
-0.0276753
-0.0250657
-0.0223563
-0.0195582
-0.0166823
-0.0137403
-0.0107438
-0.0077047
-0.00463506
-0.00154706
0.00155702
0.00466484
0.00775413
0.0108126
0.013828
0.0167884
0.0196819
0.0224969
0.0252222
0.0278468
0.03036
0.0327518
0.0350124
0.0371325
0.0391037
0.0409177
0.0425672
0.0440455
0.0453465
0.0464649
0.0473963
0.048137
0.0486844
0.049037
0.0491941
0.0491565
0.0489258
0.0485049
0.047898
0.0471102
0.046147
0.0450135
0.0437124
0.0422446
0.0406065
0.0387947
0.036804
0.0346678
0.0324151
0.0299417
0.0272964
0.0246953
0.0222381
0.0198938
0.0170756
0.0137729
0.0105554
0.00745795
0.004444
0.00147656
-0.00147606
-0.00444352
-0.00745747
-0.0105549
-0.0137724
-0.0170751
-0.0198933
-0.0222377
-0.0246948
-0.027296
-0.0299413
-0.0324147
-0.0346674
-0.0368035
-0.0387943
-0.0406061
-0.0422443
-0.0437121
-0.0450131
-0.0461467
-0.0471099
-0.0478977
-0.0485046
-0.0489255
-0.0491563
-0.0491939
-0.0490367
-0.0486842
-0.0481367
-0.047396
-0.0464647
-0.0453463
-0.0440453
-0.042567
-0.0409175
-0.0391035
-0.0371324
-0.0350122
-0.0327517
-0.0303599
-0.0278467
-0.0252221
-0.0224969
-0.0196818
-0.0167883
-0.013828
-0.0108126
-0.0077541
-0.00466483
-0.00155701
0.00156785
0.0046973
0.00780797
0.0108875
0.0139235
0.0169038
0.0198165
0.0226499
0.0253925
0.0280332
0.0305613
0.0329665
0.0352391
0.0373696
0.0393494
0.0411702
0.0428246
0.0443058
0.0456076
0.0467246
0.0476523
0.048387
0.048926
0.0492677
0.0494119
0.0493593
0.0491121
0.0486736
0.0480489
0.0472453
0.0462705
0.0451317
0.0438324
0.0423742
0.040745
0.0389397
0.0369024
0.0347296
0.0325974
0.0300255
0.0270615
0.0243387
0.0220329
0.020554
0.0177742
0.0136678
0.0103094
0.00723816
0.00430071
0.00142727
-0.00142681
-0.00430023
-0.00723768
-0.0103089
-0.0136673
-0.0177737
-0.0205536
-0.0220325
-0.0243383
-0.0270611
-0.0300251
-0.032597
-0.0347292
-0.036902
-0.0389394
-0.0407447
-0.0423738
-0.0438321
-0.0451313
-0.0462701
-0.047245
-0.0480486
-0.0486732
-0.0491118
-0.0493591
-0.0494116
-0.0492675
-0.0489257
-0.0483867
-0.047652
-0.0467243
-0.0456073
-0.0443056
-0.0428244
-0.04117
-0.0393492
-0.0373695
-0.0352389
-0.0329664
-0.0305612
-0.0280331
-0.0253924
-0.0226498
-0.0198165
-0.0169037
-0.0139234
-0.0108874
-0.00780795
-0.00469727
-0.00156784
0.00157953
0.0047322
0.0078659
0.0109681
0.0140262
0.0170279
0.0199612
0.0228142
0.0255753
0.0282333
0.0307772
0.0331968
0.0354819
0.0376233
0.039612
0.0414398
0.043099
0.0445828
0.0458849
0.0469998
0.0479228
0.0486502
0.049179
0.0495077
0.049636
0.0495652
0.0492975
0.0488364
0.0481879
0.0473622
0.0463708
0.0452261
0.0439308
0.0424984
0.0408885
0.0391517
0.0369789
0.0346018
0.0330778
0.0303712
0.0264695
0.0234613
0.0209045
0.0185983
0.015894
0.0127535
0.00973201
0.00685417
0.00407566
0.00135278
-0.00135231
-0.00407517
-0.00685368
-0.00973154
-0.0127531
-0.0158935
-0.0185978
-0.0209041
-0.0234609
-0.0264691
-0.0303708
-0.0330774
-0.0346015
-0.0369786
-0.0391513
-0.0408882
-0.042498
-0.0439305
-0.0452257
-0.0463705
-0.0473619
-0.0481875
-0.048836
-0.0492972
-0.0495649
-0.0496357
-0.0495074
-0.0491787
-0.0486499
-0.0479226
-0.0469996
-0.0458847
-0.0445826
-0.0430988
-0.0414396
-0.0396118
-0.0376231
-0.0354818
-0.0331967
-0.0307771
-0.0282332
-0.0255752
-0.0228142
-0.0199612
-0.0170279
-0.0140261
-0.010968
-0.00786587
-0.00473218
-0.0015795
0.00159192
0.00476937
0.00792757
0.0110538
0.0141354
0.01716
0.0201151
0.0229889
0.0257695
0.0284457
0.0310063
0.0334408
0.0357391
0.0378916
0.0398894
0.041724
0.0433878
0.0448738
0.0461756
0.0472877
0.0482051
0.0489237
0.0494404
0.0497534
0.0498627
0.04977
0.0494779
0.0489883
0.0483065
0.0474494
0.046431
0.0452805
0.0439793
0.0426168
0.0409809
0.039627
0.0370962
0.033468
0.0307692
0.0279534
0.0248694
0.0220328
0.0194362
0.016959
0.0143795
0.0116655
0.0089702
0.00634272
0.00377844
0.00125504
-0.00125454
-0.00377798
-0.00634223
-0.00896973
-0.011665
-0.0143791
-0.0169586
-0.0194358
-0.0220324
-0.024869
-0.027953
-0.0307688
-0.0334676
-0.0370958
-0.0396266
-0.0409806
-0.0426164
-0.043979
-0.0452801
-0.0464307
-0.0474491
-0.0483062
-0.048988
-0.0494776
-0.0497697
-0.0498624
-0.0497531
-0.0494401
-0.0489235
-0.0482048
-0.0472874
-0.0461754
-0.0448736
-0.0433876
-0.0417238
-0.0398892
-0.0378914
-0.0357389
-0.0334406
-0.0310062
-0.0284456
-0.0257695
-0.0229888
-0.0201151
-0.0171599
-0.0141354
-0.0110538
-0.00792754
-0.00476936
-0.00159191
0.00160502
0.00480856
0.0079926
0.0111442
0.0142506
0.017299
0.0202772
0.0231727
0.0259738
0.0286689
0.0312468
0.0336968
0.0360085
0.0381723
0.0401791
0.0420204
0.0436884
0.045176
0.0464768
0.0475852
0.048496
0.0492046
0.0497073
0.0500017
0.050088
0.0499695
0.0496504
0.0491272
0.0483965
0.0474955
0.0464235
0.0452882
0.0438954
0.0428178
0.040606
0.0372755
0.0343198
0.0312564
0.0284427
0.0256828
0.0229175
0.0202733
0.0177689
0.0153521
0.0129405
0.0105115
0.00810486
0.0057432
0.00342579
0.00113858
-0.00113809
-0.00342532
-0.00574271
-0.00810439
-0.0105111
-0.0129401
-0.0153517
-0.0177684
-0.0202729
-0.022917
-0.0256824
-0.0284423
-0.031256
-0.0343195
-0.0372751
-0.0406056
-0.0428175
-0.0438951
-0.0452878
-0.0464231
-0.0474951
-0.0483962
-0.0491269
-0.0496501
-0.0499692
-0.0500877
-0.0500015
-0.049707
-0.0492043
-0.0484957
-0.047585
-0.0464766
-0.0451758
-0.0436882
-0.0420202
-0.040179
-0.0381722
-0.0360084
-0.0336966
-0.0312467
-0.0286688
-0.0259738
-0.0231727
-0.0202771
-0.017299
-0.0142505
-0.0111441
-0.00799257
-0.00480855
-0.00160501
0.00161871
0.00484955
0.00806057
0.0112387
0.0143708
0.0174443
0.0204463
0.0233645
0.0261868
0.0289014
0.0314971
0.0339628
0.0362881
0.0384632
0.0404788
0.0423262
0.0439977
0.0454861
0.0467851
0.0478889
0.0487922
0.04949
0.0499772
0.0502498
0.0503074
0.0501574
0.0498143
0.0492611
0.0484456
0.047503
0.0462724
0.045349
0.0432961
0.0401332
0.0373403
0.034381
0.0314999
0.028661
0.0259431
0.0233124
0.0207525
0.0182946
0.0159452
0.0136814
0.0114698
0.00929582
0.00716467
0.00507858
0.00303062
0.00100752
-0.00100704
-0.00303014
-0.00507811
-0.00716419
-0.00929536
-0.0114694
-0.013681
-0.0159447
-0.0182942
-0.0207521
-0.023312
-0.0259427
-0.0286606
-0.0314995
-0.0343806
-0.03734
-0.0401329
-0.0432958
-0.0453486
-0.0462721
-0.0475026
-0.0484452
-0.0492608
-0.049814
-0.0501572
-0.0503071
-0.0502495
-0.0499769
-0.0494897
-0.0487919
-0.0478886
-0.0467848
-0.0454859
-0.0439975
-0.0423261
-0.0404786
-0.038463
-0.036288
-0.0339626
-0.031497
-0.0289013
-0.0261867
-0.0233644
-0.0204462
-0.0174442
-0.0143708
-0.0112386
-0.00806053
-0.00484952
-0.0016187
0.00163292
0.00489204
0.00813104
0.0113366
0.0144955
0.0175947
0.0206213
0.0235628
0.0264068
0.0291415
0.0317552
0.0342368
0.0365757
0.0387618
0.0407856
0.0426385
0.0443125
0.0458005
0.0470964
0.0481946
0.04909
0.0497769
0.0502486
0.0504967
0.0505155
0.0503184
0.0499673
0.0494364
0.0484025
0.0475813
0.045601
0.0425061
0.039784
0.0368964
0.0340753
0.0312598
0.0285054
0.0258279
0.0232538
0.0207814
0.0184081
0.0161411
0.0139792
0.011911
0.00992242
0.00800611
0.00615588
0.00435938
0.00260093
0.000864725
-0.000864238
-0.00260044
-0.00435891
-0.00615542
-0.00800569
-0.00992196
-0.0119105
-0.0139788
-0.0161406
-0.0184077
-0.020781
-0.0232534
-0.0258275
-0.028505
-0.0312594
-0.0340749
-0.036896
-0.0397837
-0.0425057
-0.0456007
-0.047581
-0.0484022
-0.049436
-0.049967
-0.0503181
-0.0505152
-0.0504964
-0.0502483
-0.0497767
-0.0490897
-0.0481944
-0.0470962
-0.0458003
-0.0443123
-0.0426383
-0.0407855
-0.0387616
-0.0365755
-0.0342366
-0.031755
-0.0291414
-0.0264067
-0.0235627
-0.0206212
-0.0175946
-0.0144954
-0.0113365
-0.00813099
-0.00489201
-0.00163291
0.00164753
0.00493579
0.00820356
0.0114373
0.0146236
0.0177492
0.0208011
0.0237663
0.0266324
0.0293873
0.0320191
0.0345166
0.0368688
0.0390654
0.0410969
0.0429542
0.0446293
0.0461153
0.0474062
0.0484974
0.0493845
0.0500623
0.0505223
0.050748
0.0507125
0.0504044
0.0500702
0.0498842
0.0479198
0.0447721
0.0420087
0.0390956
0.0362596
0.0334327
0.0306611
0.0279499
0.025322
0.0227935
0.020378
0.0180785
0.0158956
0.01383
0.0118763
0.0100251
0.00827402
0.00662802
0.00507659
0.00359046
0.00214218
0.000712408
-0.00071191
-0.00214169
-0.00359001
-0.00507612
-0.00662758
-0.00827357
-0.0100246
-0.0118759
-0.0138296
-0.0158952
-0.0180781
-0.0203775
-0.0227931
-0.0253216
-0.0279495
-0.0306607
-0.0334323
-0.0362593
-0.0390953
-0.0420084
-0.0447718
-0.0479195
-0.0498839
-0.0500699
-0.0504041
-0.0507122
-0.0507477
-0.050522
-0.0500621
-0.0493842
-0.0484972
-0.047406
-0.046115
-0.0446291
-0.042954
-0.0410967
-0.0390653
-0.0368686
-0.0345165
-0.032019
-0.0293872
-0.0266323
-0.0237662
-0.020801
-0.0177492
-0.0146236
-0.0114373
-0.00820349
-0.00493574
-0.00164753
0.00166246
0.00498049
0.00827766
0.0115402
0.0147545
0.0179069
0.0209843
0.0239736
0.0268619
0.029637
0.0322869
0.0348
0.0371651
0.0393717
0.0414097
0.0432701
0.0449445
0.046426
0.0477092
0.0487906
0.0496682
0.05034
0.0507997
0.0510263
0.0509454
0.0502789
0.0497855
0.0480468
0.0445689
0.0413698
0.0383754
0.0354362
0.0325721
0.0297767
0.0270658
0.0244514
0.0219482
0.0195685
0.0173201
0.0152042
0.0132203
0.0113701
0.00964141
0.00801585
0.00650298
0.00514229
0.00392251
0.00277733
0.00166114
0.000553398
-0.000552901
-0.00166068
-0.00277687
-0.00392205
-0.00514184
-0.00650253
-0.00801543
-0.00964098
-0.0113697
-0.0132199
-0.0152038
-0.0173197
-0.019568
-0.0219478
-0.024451
-0.0270654
-0.0297763
-0.0325718
-0.0354359
-0.0383751
-0.0413695
-0.0445686
-0.0480464
-0.0497852
-0.0502786
-0.0509451
-0.051026
-0.0507995
-0.0503397
-0.049668
-0.0487904
-0.047709
-0.0464258
-0.0449443
-0.0432699
-0.0414096
-0.0393715
-0.0371649
-0.0347998
-0.0322868
-0.029637
-0.0268618
-0.0239734
-0.0209842
-0.0179069
-0.0147544
-0.0115402
-0.0082776
-0.00498044
-0.00166246
0.00167765
0.00502587
0.00835286
0.0116446
0.0148871
0.0180667
0.0211697
0.024183
0.0270936
0.0298888
0.0325564
0.0350846
0.037462
0.0396777
0.0417214
0.0435833
0.0452548
0.0467284
0.0479993
0.0490656
0.049929
0.0505947
0.0510702
0.0513676
0.0515169
0.0497353
0.0466804
0.0438927
0.0407298
0.0375761
0.0345203
0.0315543
0.0286865
0.0259234
0.0232772
0.0207595
0.0183823
0.0161555
0.0140844
0.0121618
0.0103837
0.00876835
0.00728877
0.00588446
0.00457427
0.00351275
0.00269227
0.00193424
0.00117119
0.000392737
-0.000392272
-0.00117074
-0.00193378
-0.00269182
-0.00351231
-0.00457383
-0.00588402
-0.00728836
-0.00876792
-0.0103833
-0.0121614
-0.0140839
-0.0161551
-0.0183819
-0.0207591
-0.0232768
-0.0259231
-0.0286861
-0.031554
-0.03452
-0.0375758
-0.0407295
-0.0438924
-0.04668
-0.049735
-0.0515166
-0.0513673
-0.0510699
-0.0505944
-0.0499288
-0.0490653
-0.047999
-0.0467282
-0.0452546
-0.0435831
-0.0417213
-0.0396776
-0.0374619
-0.0350845
-0.0325563
-0.0298887
-0.0270935
-0.0241829
-0.0211697
-0.0180666
-0.014887
-0.0116445
-0.0083528
-0.00502582
-0.00167764
0.00169294
0.00507164
0.00842871
0.0117498
0.0150206
0.0182273
0.021356
0.0243932
0.0273256
0.0301405
0.0328253
0.0353681
0.0377571
0.0399811
0.0420293
0.0438913
0.0455573
0.0470191
0.0482709
0.0493125
0.0501496
0.0507948
0.0512681
0.0516005
0.0499374
0.0463953
0.0430816
0.0399076
0.036698
0.0335229
0.0304344
0.0274525
0.0245921
0.0218664
0.0192884
0.0168693
0.014621
0.0125531
0.010676
0.00895933
0.0073757
0.00602772
0.00486219
0.00366397
0.00240482
0.00165076
0.00140654
0.00110097
0.000699469
0.000239552
-0.000239096
-0.000699003
-0.00110052
-0.0014061
-0.00165032
-0.00240438
-0.00366352
-0.00486177
-0.00602731
-0.00737526
-0.00895891
-0.0106755
-0.0125527
-0.0146206
-0.0168689
-0.019288
-0.021866
-0.0245917
-0.0274521
-0.030434
-0.0335225
-0.0366976
-0.0399073
-0.0430813
-0.046395
-0.0499371
-0.0516003
-0.0512678
-0.0507946
-0.0501494
-0.0493123
-0.0482707
-0.0470188
-0.0455571
-0.0438911
-0.0420291
-0.0399809
-0.0377569
-0.0353679
-0.0328252
-0.0301404
-0.0273255
-0.0243931
-0.0213559
-0.0182272
-0.0150206
-0.0117497
-0.00842862
-0.0050716
-0.00169294
0.0017083
0.00511753
0.00850464
0.011855
0.0151542
0.0183878
0.0215418
0.0246024
0.0275562
0.03039
0.0330913
0.0356477
0.0380474
0.0402789
0.0423308
0.0441919
0.0458508
0.0472966
0.0485212
0.0495239
0.0503145
0.0509123
0.0513453
0.049741
0.0461601
0.0425988
0.0391402
0.0357785
0.0324747
0.0292482
0.0261276
0.0231344
0.0202863
0.0176013
0.0150955
0.0127767
0.0106595
0.00875036
0.00710588
0.00562972
0.0041438
0.00312022
0.00248602
0.00152471
-0.000246084
-0.000698823
0.000198142
0.000374103
0.000291993
0.000107001
-0.000106557
-0.000291528
-0.000373637
-0.000197697
0.000699268
0.00024654
-0.00152429
-0.00248562
-0.00311979
-0.00414338
-0.00562929
-0.00710544
-0.00874995
-0.0106592
-0.0127763
-0.0150951
-0.0176009
-0.0202859
-0.0231341
-0.0261273
-0.0292478
-0.0324744
-0.0357782
-0.0391399
-0.0425985
-0.0461599
-0.0497407
-0.051345
-0.050912
-0.0503143
-0.0495237
-0.0485209
-0.0472964
-0.0458506
-0.0441917
-0.0423306
-0.0402787
-0.0380473
-0.0356476
-0.0330912
-0.0303899
-0.0275561
-0.0246023
-0.0215417
-0.0183877
-0.0151541
-0.011855
-0.00850459
-0.00511748
-0.00170829
0.00172358
0.00516323
0.00858027
0.0119598
0.0152869
0.018547
0.0217258
0.0248091
0.0277834
0.0306353
0.0333519
0.0359209
0.0383302
0.0405682
0.0426233
0.0444836
0.0461355
0.0475636
0.0487524
0.049698
0.0504148
0.0509299
0.0493678
0.0457775
0.042132
0.0384964
0.0349248
0.031439
0.0280451
0.0247608
0.0216078
0.0186049
0.015769
0.0131249
0.0106985
0.00847808
0.00649694
0.00469903
0.00339046
0.00233834
0.000483857
-0.000140967
0.00047058
0.000229779
-0.000351032
-0.000537548
-0.000264952
-7.96529e-05
-4.26693e-06
5.71747e-06
-5.2516e-06
4.71162e-06
8.01081e-05
0.000265407
0.000537972
0.000351466
-0.000229334
-0.000470156
0.000141402
-0.000483444
-0.00233791
-0.00339004
-0.00469861
-0.00649655
-0.0084777
-0.0106981
-0.0131246
-0.0157687
-0.0186046
-0.0216075
-0.0247604
-0.0280448
-0.0314388
-0.0349245
-0.0384961
-0.0421318
-0.0457772
-0.0493676
-0.0509297
-0.0504146
-0.0496977
-0.0487521
-0.0475634
-0.0461353
-0.0444834
-0.0426231
-0.040568
-0.03833
-0.0359207
-0.0333518
-0.0306352
-0.0277833
-0.024809
-0.0217257
-0.0185469
-0.0152868
-0.0119597
-0.00858022
-0.00516318
-0.00172356
0.00173872
0.00520849
0.00865512
0.0120633
0.0154178
0.0187039
0.0219066
0.0250118
0.0280054
0.030874
0.0336045
0.0361845
0.0386018
0.0408451
0.0429032
0.0447643
0.0464138
0.0478289
0.0489761
0.0498416
0.0504496
0.0489302
0.0453353
0.0416355
0.0378898
0.0341538
0.0304743
0.0268838
0.023406
0.0200648
0.0168821
0.0138721
0.0110418
0.00842907
0.00610773
0.00396511
0.00218646
0.000202557
-0.000532847
-9.99817e-05
-0.000524885
-0.000759196
-0.000646456
-0.000683926
-0.000810494
-0.000800541
-0.000615348
-0.000406502
-0.0002253
-7.15002e-05
7.19766e-05
0.000225745
0.000406925
0.000615772
0.000800976
0.000810928
0.000684371
0.000646921
0.00075964
0.000525298
0.000100405
0.000533281
-0.000202166
-0.00218605
-0.00396472
-0.00610736
-0.0084287
-0.0110414
-0.0138717
-0.0168818
-0.0200644
-0.0234057
-0.0268834
-0.030474
-0.0341535
-0.0378895
-0.0416352
-0.0453351
-0.0489299
-0.0504494
-0.0498413
-0.0489758
-0.0478287
-0.0464136
-0.044764
-0.042903
-0.040845
-0.0386017
-0.0361843
-0.0336044
-0.0308739
-0.0280053
-0.0250117
-0.0219065
-0.0187038
-0.0154178
-0.0120632
-0.00865505
-0.00520844
-0.00173872
0.00175365
0.00525308
0.00872875
0.012165
0.0155463
0.0188573
0.0220831
0.0252088
0.0282204
0.031104
0.0338465
0.0364353
0.0388585
0.0411049
0.0431646
0.0450287
0.0466867
0.0481115
0.0492207
0.049973
0.0485146
0.04492
0.0411721
0.0373337
0.0334616
0.029607
0.0258146
0.0221217
0.0185609
0.015164
0.0119591
0.00895495
0.00611041
0.00347183
0.00138205
-0.000855768
-0.0018536
-0.00164583
-0.00172823
-0.00161577
-0.00166226
-0.00166701
-0.00156336
-0.00146453
-0.00136728
-0.00120565
-0.000963839
-0.000687812
-0.000408408
-0.000134932
0.000135388
0.000408852
0.000688235
0.000964262
0.00120607
0.00136771
0.001465
0.00156381
0.00166745
0.00166268
0.0016162
0.00172867
0.00164624
0.00185401
0.00085617
-0.00138168
-0.00347147
-0.00611005
-0.00895462
-0.0119588
-0.0151637
-0.0185606
-0.0221214
-0.0258143
-0.0296067
-0.0334613
-0.0373335
-0.0411718
-0.0449198
-0.0485143
-0.0499728
-0.0492204
-0.0481113
-0.0466865
-0.0450284
-0.0431644
-0.0411047
-0.0388583
-0.0364351
-0.0338463
-0.0311038
-0.0282202
-0.0252087
-0.022083
-0.0188572
-0.0155462
-0.012165
-0.00872869
-0.00525302
-0.00175364
0.00176829
0.00529673
0.00880082
0.0122644
0.0156716
0.0190066
0.022254
0.0253989
0.0284266
0.0313231
0.0340752
0.0366701
0.0390959
0.0413416
0.0433981
0.0452624
0.0469434
0.0484485
0.0495503
0.048215
0.0446265
0.0408247
0.0368916
0.0328887
0.028869
0.0248803
0.0209659
0.0171648
0.0135147
0.0100576
0.0068438
0.00390663
0.00102029
-0.00196989
-0.00311916
-0.00300638
-0.00318671
-0.00312052
-0.00304096
-0.00290251
-0.00277692
-0.00262457
-0.00242344
-0.00219788
-0.00194887
-0.00165793
-0.00132081
-0.000954183
-0.000574701
-0.000191588
0.000192044
0.000575135
0.000954596
0.00132123
0.00165835
0.00194931
0.00219834
0.00242388
0.00262502
0.00277736
0.00290295
0.00304138
0.00312095
0.00318712
0.00300677
0.00311955
0.00197027
-0.00101994
-0.00390629
-0.00684348
-0.0100573
-0.0135144
-0.0171645
-0.0209656
-0.02488
-0.0288687
-0.0328885
-0.0368913
-0.0408245
-0.0446263
-0.0482147
-0.0495501
-0.0484483
-0.0469432
-0.0452622
-0.0433979
-0.0413413
-0.0390957
-0.03667
-0.034075
-0.031323
-0.0284264
-0.0253987
-0.0222539
-0.0190065
-0.0156715
-0.0122644
-0.00880078
-0.00529669
-0.00176828
0.00178256
0.0053393
0.00887103
0.0123611
0.0157931
0.0191509
0.0224186
0.0255808
0.0286225
0.0315296
0.0342883
0.0368861
0.0393105
0.0415496
0.0435922
0.0454338
0.0471166
0.0489159
0.0482126
0.0446163
0.0407092
0.0366497
0.0325017
0.028313
0.0241288
0.0199928
0.0159463
0.0120272
0.00827206
0.00472871
0.00149485
-0.00112975
-0.00388358
-0.00532916
-0.00495539
-0.00476502
-0.00467241
-0.00452158
-0.0043322
-0.00410299
-0.00385143
-0.00357049
-0.00325414
-0.00290769
-0.00253204
-0.00212304
-0.00168119
-0.00121472
-0.000733435
-0.000245004
0.000245449
0.00073388
0.00121513
0.0016816
0.00212347
0.00253249
0.00290814
0.00325459
0.00357091
0.00385186
0.00410342
0.00433262
0.00452201
0.00467284
0.0047654
0.00495576
0.00532952
0.00388394
0.00113011
-0.00149452
-0.00472838
-0.00827173
-0.0120269
-0.0159461
-0.0199925
-0.0241285
-0.0283127
-0.0325014
-0.0366494
-0.040709
-0.044616
-0.0482124
-0.0489157
-0.0471163
-0.0454336
-0.043592
-0.0415494
-0.0393103
-0.0368859
-0.0342882
-0.0315294
-0.0286224
-0.0255806
-0.0224185
-0.0191508
-0.015793
-0.012361
-0.00887097
-0.00533928
-0.00178254
0.00179642
0.00538065
0.0089391
0.0124547
0.0159104
0.0192897
0.0225761
0.0257536
0.028807
0.0317217
0.0344839
0.0370808
0.0395002
0.041729
0.043747
0.0455093
0.046904
0.0477795
0.0456667
0.0410785
0.0367276
0.0323797
0.0280022
0.0236153
0.0192548
0.0149615
0.0107754
0.00673003
0.00284943
-0.000852507
-0.00438344
-0.0059399
-0.0061598
-0.00656513
-0.00649608
-0.00632198
-0.00611928
-0.00587103
-0.00558013
-0.00524969
-0.00488604
-0.0044895
-0.00405959
-0.0035984
-0.00310735
-0.00258699
-0.00203966
-0.00147102
-0.000887871
-0.000296673
0.000297097
0.000888315
0.00147144
0.00204008
0.00258741
0.00310781
0.00359884
0.00406002
0.00448994
0.00488648
0.0052501
0.00558056
0.00587144
0.00611968
0.00632235
0.00649646
0.0065655
0.00616016
0.00594026
0.00438379
0.000852846
-0.00284909
-0.00672972
-0.0107751
-0.0149613
-0.0192546
-0.023615
-0.0280019
-0.0323794
-0.0367274
-0.0410782
-0.0456664
-0.0477792
-0.0469038
-0.0455091
-0.0437468
-0.0417288
-0.0395
-0.0370806
-0.0344837
-0.0317215
-0.0288069
-0.0257535
-0.0225759
-0.0192896
-0.0159103
-0.0124546
-0.00893905
-0.00538063
-0.00179641
0.00180986
0.00542067
0.00900492
0.0125449
0.0160232
0.0194226
0.022726
0.0259169
0.0289794
0.0318984
0.03466
0.0372518
0.0396634
0.0418861
0.043909
0.0456896
0.0469348
0.0455261
0.0415087
0.0370761
0.0325525
0.0279837
0.0233914
0.0188046
0.0142605
0.00980234
0.00547422
0.00130854
-0.00268293
-0.00650861
-0.00829414
-0.00813725
-0.00812629
-0.00815393
-0.00802711
-0.00780014
-0.00751146
-0.00717012
-0.0067818
-0.00635099
-0.00588217
-0.00537772
-0.00483937
-0.00426937
-0.00366989
-0.00304314
-0.0023924
-0.00172243
-0.00103874
-0.000346976
0.000347411
0.00103915
0.00172287