/*--------------------------------*- C++ -*----------------------------------*\
  =========                 |
  \\      /  F ield         | OpenFOAM: The Open Source CFD Toolbox
   \\    /   O peration     | Website:  https://openfoam.org
    \\  /    A nd           | Version:  7
     \\/     M anipulation  |
\*---------------------------------------------------------------------------*/
FoamFile
{
    version     2.0;
    format      ascii;
    class       volScalarField;
    location    "0.033";
    object      gradTy;
}
// * * * * * * * * * * * * * * * * * * * * * * * * * * * * * * * * * * * * * //

dimensions      [0 -1 0 1 0 0 0];

internalField   nonuniform List<scalar> 
10000
(
0.00150546
0.00150666
0.00150905
0.00151259
0.00151732
0.00152317
0.00153009
0.00153807
0.00154706
0.00155702
0.00156785
0.00157953
0.00159193
0.00160503
0.00161872
0.00163291
0.00164753
0.00166247
0.00167763
0.00169295
0.0017083
0.00172361
0.00173876
0.00175368
0.00176829
0.00178255
0.00179643
0.00180986
0.00182281
0.00183531
0.00184734
0.00185888
0.00186993
0.00188048
0.00189045
0.00189986
0.00190861
0.00191669
0.00192409
0.00193083
0.00193697
0.00194262
0.00194782
0.00195261
0.00195686
0.0019605
0.00196334
0.00196541
0.00196674
0.00196736
0.00196737
0.00196672
0.00196541
0.00196336
0.00196049
0.00195689
0.00195261
0.00194784
0.00194262
0.00193696
0.00193082
0.00192409
0.00191669
0.00190861
0.00189985
0.00189046
0.00188048
0.00186994
0.00185888
0.00184733
0.00183532
0.00182283
0.00180986
0.00179642
0.00178255
0.00176829
0.00175365
0.00173873
0.00172358
0.0017083
0.00169295
0.00167764
0.00166247
0.00164753
0.0016329
0.00161871
0.00160502
0.00159192
0.0015795
0.00156786
0.00155703
0.00154706
0.00153807
0.00153009
0.00152317
0.00151731
0.0015126
0.00150903
0.00150666
0.00150545
0.00451049
0.00451409
0.00452123
0.00453188
0.00454599
0.00456349
0.00458424
0.00460817
0.0046351
0.00466485
0.0046973
0.0047322
0.00476938
0.00480857
0.00484954
0.00489204
0.00493578
0.00498048
0.00502587
0.00507164
0.00511752
0.00516323
0.00520849
0.00525307
0.00529674
0.0053393
0.00538065
0.00542068
0.00545931
0.0054965
0.00553229
0.00556665
0.00559952
0.00563091
0.00566064
0.0056886
0.00571463
0.00573864
0.00576055
0.00578046
0.00579861
0.00581526
0.00583071
0.00584497
0.00585775
0.00586857
0.0058771
0.00588318
0.00588701
0.00588883
0.00588881
0.00588701
0.00588317
0.00587709
0.00586858
0.00585773
0.00584496
0.00583071
0.00581526
0.0057986
0.00578046
0.00576054
0.00573863
0.00571465
0.0056886
0.00566063
0.0056309
0.00559953
0.00556664
0.00553228
0.0054965
0.00545929
0.00542065
0.00538064
0.00533928
0.00529671
0.00525304
0.00520847
0.00516321
0.00511751
0.00507162
0.00502585
0.00498047
0.00493576
0.00489202
0.00484953
0.00480855
0.00476937
0.0047322
0.0046973
0.00466485
0.00463508
0.00460816
0.00458425
0.00456347
0.00454598
0.00453187
0.00452121
0.00451406
0.00451047
0.0074979
0.00750385
0.00751571
0.00753343
0.00755685
0.00758588
0.00762035
0.00766004
0.00770473
0.00775415
0.00780798
0.00786591
0.00792758
0.0079926
0.00806057
0.00813103
0.00820356
0.00827766
0.00835288
0.00842871
0.00850464
0.00858027
0.00865511
0.00872875
0.00880081
0.00887102
0.0089391
0.00900491
0.00906837
0.00912942
0.00918809
0.0092444
0.00929836
0.00934979
0.00939858
0.00944444
0.00948709
0.00952626
0.00956189
0.00959408
0.00962324
0.00965008
0.00967518
0.0096987
0.00972002
0.00973806
0.00975204
0.00976176
0.00976767
0.0097704
0.00977041
0.00976767
0.00976176
0.00975202
0.00973806
0.00972002
0.0096987
0.00967516
0.00965006
0.00962323
0.00959406
0.00956187
0.00952626
0.00948708
0.00944444
0.00939858
0.00934978
0.00929833
0.0092444
0.00918807
0.00912938
0.00906832
0.00900489
0.00893907
0.00887098
0.00880078
0.00872871
0.00865508
0.00858023
0.0085046
0.00842867
0.00835284
0.00827763
0.00820354
0.00813101
0.00806052
0.00799257
0.00792755
0.0078659
0.00780797
0.00775413
0.00770473
0.00766002
0.00762033
0.00758586
0.00755683
0.00753339
0.00751568
0.00750382
0.00749788
0.010456
0.0104643
0.0104808
0.0105054
0.0105381
0.0105785
0.0106264
0.0106817
0.0107439
0.0108126
0.0108875
0.010968
0.0110538
0.0111442
0.0112387
0.0113366
0.0114373
0.0115402
0.0116446
0.0117498
0.0118551
0.0119598
0.0120633
0.012165
0.0122644
0.0123611
0.0124547
0.0125449
0.0126318
0.0127152
0.0127953
0.0128722
0.0129458
0.0130161
0.0130828
0.0131455
0.0132036
0.0132568
0.0133048
0.0133477
0.0133862
0.0134215
0.0134553
0.0134878
0.013518
0.0135435
0.0135625
0.0135751
0.0135822
0.0135853
0.0135853
0.0135822
0.0135751
0.0135625
0.0135435
0.013518
0.0134878
0.0134552
0.0134215
0.0133862
0.0133477
0.0133048
0.0132568
0.0132036
0.0131455
0.0130828
0.0130161
0.0129458
0.0128722
0.0127953
0.0127152
0.0126318
0.0125449
0.0124546
0.0123611
0.0122644
0.012165
0.0120632
0.0119597
0.011855
0.0117497
0.0116446
0.0115402
0.0114373
0.0113366
0.0112386
0.0111442
0.0110538
0.010968
0.0108875
0.0108126
0.0107439
0.0106817
0.0106264
0.0105784
0.010538
0.0105054
0.0104808
0.0104643
0.010456
0.0133733
0.0133838
0.0134049
0.0134363
0.0134779
0.0135295
0.0135906
0.0136611
0.0137404
0.013828
0.0139235
0.0140262
0.0141354
0.0142506
0.0143709
0.0144955
0.0146236
0.0147545
0.0148871
0.0150207
0.0151542
0.0152869
0.0154178
0.0155463
0.0156716
0.0157931
0.0159104
0.0160232
0.0161315
0.0162352
0.0163346
0.01643
0.0165214
0.0166087
0.0166918
0.0167699
0.0168421
0.0169078
0.0169663
0.0170176
0.0170625
0.0171036
0.0171442
0.0171858
0.0172262
0.0172598
0.0172833
0.0172971
0.0173037
0.017306
0.017306
0.0173037
0.0172971
0.0172833
0.0172598
0.0172262
0.0171858
0.0171441
0.0171036
0.0170625
0.0170176
0.0169663
0.0169078
0.0168421
0.0167698
0.0166918
0.0166087
0.0165213
0.01643
0.0163346
0.0162352
0.0161315
0.0160232
0.0159104
0.0157931
0.0156716
0.0155463
0.0154178
0.0152869
0.0151542
0.0150206
0.0148871
0.0147545
0.0146236
0.0144955
0.0143708
0.0142506
0.0141354
0.0140262
0.0139235
0.013828
0.0137404
0.0136611
0.0135906
0.0135294
0.0134779
0.0134363
0.0134049
0.0133838
0.0133733
0.0162383
0.016251
0.0162765
0.0163145
0.0163649
0.0164273
0.0165013
0.0165865
0.0166824
0.0167884
0.0169038
0.0170279
0.01716
0.017299
0.0174443
0.0175947
0.0177493
0.017907
0.0180667
0.0182273
0.0183878
0.018547
0.0187039
0.0188574
0.0190066
0.0191509
0.0192897
0.0194226
0.0195496
0.0196708
0.0197867
0.0198977
0.0200043
0.0201065
0.020204
0.0202958
0.0203805
0.0204568
0.0205238
0.0205807
0.0206275
0.0206691
0.0207133
0.0207649
0.0208194
0.0208633
0.0208902
0.0209019
0.0209045
0.0209041
0.0209041
0.0209045
0.0209019
0.0208902
0.0208634
0.0208194
0.0207649
0.0207133
0.0206691
0.0206275
0.0205807
0.0205238
0.0204568
0.0203805
0.0202958
0.020204
0.0201065
0.0200043
0.0198977
0.0197866
0.0196708
0.0195495
0.0194226
0.0192896
0.0191509
0.0190066
0.0188573
0.0187038
0.018547
0.0183878
0.0182273
0.0180667
0.0179069
0.0177492
0.0175947
0.0174443
0.017299
0.01716
0.0170279
0.0169038
0.0167884
0.0166824
0.0165865
0.0165013
0.0164273
0.0163649
0.0163145
0.0162765
0.016251
0.0162383
0.0190397
0.0190546
0.0190844
0.0191288
0.0191876
0.0192604
0.0193468
0.0194463
0.0195582
0.0196819
0.0198165
0.0199612
0.0201151
0.0202772
0.0204463
0.0206213
0.0208011
0.0209843
0.0211697
0.021356
0.0215418
0.0217258
0.0219066
0.0220831
0.022254
0.0224186
0.022576
0.022726
0.0228683
0.0230034
0.0231321
0.0232552
0.0233737
0.023488
0.0235978
0.0237015
0.023797
0.0238821
0.0239557
0.0240153
0.0240571
0.0240893
0.0241301
0.0241941
0.0242745
0.0243339
0.0243609
0.0243637
0.0243559
0.0243489
0.0243489
0.0243559
0.0243637
0.0243609
0.0243339
0.0242745
0.0241941
0.0241301
0.0240893
0.0240571
0.0240153
0.0239556
0.0238821
0.023797
0.0237015
0.0235978
0.023488
0.0233737
0.0232552
0.0231321
0.0230034
0.0228683
0.0227259
0.022576
0.0224186
0.022254
0.022083
0.0219066
0.0217258
0.0215418
0.021356
0.0211697
0.0209843
0.0208011
0.0206213
0.0204463
0.0202772
0.0201151
0.0199612
0.0198165
0.0196819
0.0195582
0.0194463
0.0193468
0.0192604
0.0191876
0.0191288
0.0190844
0.0190546
0.0190397
0.0217667
0.0217837
0.0218175
0.0218681
0.021935
0.0220178
0.0221161
0.0222292
0.0223564
0.0224969
0.0226499
0.0228142
0.0229889
0.0231727
0.0233645
0.0235628
0.0237663
0.0239736
0.024183
0.0243932
0.0246024
0.0248091
0.0250118
0.0252088
0.0253989
0.0255808
0.0257536
0.0259168
0.0260705
0.026215
0.0263518
0.0264823
0.0266084
0.0267314
0.0268511
0.0269653
0.0270704
0.0271616
0.027241
0.0273044
0.02733
0.0273324
0.0273527
0.0274337
0.0275749
0.0276591
0.0276768
0.0276562
0.0276261
0.0276062
0.0276062
0.0276261
0.0276562
0.0276768
0.0276591
0.0275749
0.0274337
0.0273527
0.0273324
0.0273301
0.0273044
0.027241
0.0271615
0.0270703
0.0269653
0.026851
0.0267313
0.0266084
0.0264823
0.0263517
0.026215
0.0260704
0.0259168
0.0257536
0.0255807
0.0253988
0.0252088
0.0250117
0.0248091
0.0246024
0.0243932
0.024183
0.0239735
0.0237663
0.0235628
0.0233645
0.0231727
0.0229889
0.0228142
0.0226499
0.0224969
0.0223564
0.0222292
0.0221161
0.0220178
0.021935
0.0218681
0.0218176
0.0217837
0.0217667
0.0244084
0.0244274
0.0244651
0.0245215
0.0245961
0.0246884
0.024798
0.024924
0.0250657
0.0252222
0.0253925
0.0255753
0.0257695
0.0259738
0.0261868
0.0264068
0.0266324
0.0268619
0.0270936
0.0273256
0.0275562
0.0277834
0.0280054
0.0282204
0.0284265
0.0286225
0.028807
0.0289793
0.0291394
0.0292878
0.0294265
0.0295583
0.0296865
0.0298137
0.0299412
0.0300653
0.0301804
0.0302716
0.0303574
0.0304429
0.0304348
0.0303635
0.0303178
0.0304133
0.0307296
0.0308455
0.0308243
0.0307506
0.030678
0.0306355
0.0306355
0.030678
0.0307506
0.0308243
0.0308455
0.0307296
0.0304133
0.0303178
0.0303634
0.0304347
0.0304429
0.0303574
0.0302716
0.0301804
0.0300653
0.0299411
0.0298137
0.0296864
0.0295583
0.0294265
0.0292878
0.0291393
0.0289793
0.028807
0.0286225
0.0284265
0.0282203
0.0280054
0.0277834
0.0275562
0.0273256
0.0270936
0.0268619
0.0266324
0.0264068
0.0261868
0.0259739
0.0257696
0.0255753
0.0253925
0.0252222
0.0250657
0.024924
0.024798
0.0246884
0.0245961
0.0245215
0.0244652
0.0244274
0.0244085
0.0269546
0.0269754
0.0270168
0.0270786
0.0271605
0.0272618
0.0273819
0.02752
0.0276754
0.0278468
0.0280332
0.0282333
0.0284457
0.0286689
0.0289014
0.0291415
0.0293873
0.0296371
0.0298888
0.0301405
0.03039
0.0306353
0.030874
0.031104
0.0313231
0.0315295
0.0317217
0.0318984
0.0320591
0.0322047
0.0323377
0.0324624
0.032585
0.0327103
0.032844
0.0329788
0.0331139
0.033182
0.0332648
0.0334612
0.0333856
0.0331495
0.0329199
0.0329468
0.0338542
0.0339354
0.0337893
0.0336084
0.0334644
0.0333868
0.0333868
0.0334644
0.0336084
0.0337893
0.0339354
0.0338541
0.0329468
0.0329199
0.0331495
0.0333856
0.0334611
0.0332647
0.033182
0.0331139
0.0329788
0.032844
0.0327102
0.0325849
0.0324624
0.0323376
0.0322046
0.0320591
0.0318983
0.0317216
0.0315295
0.0313231
0.0311039
0.0308739
0.0306352
0.03039
0.0301404
0.0298888
0.029637
0.0293873
0.0291415
0.0289014
0.0286689
0.0284457
0.0282333
0.0280332
0.0278468
0.0276754
0.0275201
0.0273819
0.0272618
0.0271605
0.0270787
0.0270169
0.0269754
0.0269547
0.0293952
0.0294176
0.0294625
0.0295294
0.029618
0.0297276
0.0298575
0.0300069
0.0301748
0.03036
0.0305613
0.0307772
0.0310063
0.0312468
0.0314971
0.0317551
0.0320191
0.0322869
0.0325564
0.0328253
0.0330913
0.0333519
0.0336045
0.0338465
0.0340752
0.0342883
0.0344839
0.03466
0.0348153
0.0349498
0.0350673
0.0351736
0.0352799
0.0353919
0.0355336
0.035674
0.0358906
0.035849
0.0358247
0.0365117
0.0362542
0.0356848
0.0350202
0.0343512
0.0337248
0.0331696
0.0327055
0.0323463
0.0321017
0.0319779
0.0319779
0.0321016
0.0323462
0.0327054
0.0331696
0.0337247
0.0343512
0.0350202
0.0356848
0.0362542
0.0365116
0.0358247
0.035849
0.0358906
0.035674
0.0355336
0.0353919
0.0352799
0.0351735
0.0350673
0.0349498
0.0348152
0.03466
0.0344838
0.0342883
0.0340752
0.0338464
0.0336045
0.0333519
0.0330913
0.0328253
0.0325564
0.0322869
0.0320191
0.0317552
0.0314971
0.0312468
0.0310063
0.0307772
0.0305613
0.03036
0.0301748
0.0300069
0.0298575
0.0297276
0.029618
0.0295295
0.0294625
0.0294177
0.0293952
0.0317204
0.0317445
0.0317925
0.0318641
0.0319588
0.0320761
0.032215
0.0323747
0.032554
0.0327518
0.0329665
0.0331968
0.0334408
0.0336968
0.0339628
0.0342368
0.0345166
0.0347999
0.0350846
0.035368
0.0356477
0.0359208
0.0361844
0.0364353
0.0366701
0.0368861
0.0370808
0.0372518
0.0373955
0.0375094
0.0375996
0.03767
0.0377484
0.0378169
0.0379909
0.0380528
0.0386782
0.0382466
0.0374166
0.0364185
0.0353445
0.0342264
0.0330386
0.0316298
0.0294436
0.0282351
0.0274413
0.0268959
0.0265459
0.0263736
0.0263736
0.0265459
0.0268959
0.0274413
0.0282351
0.0294436
0.0316297
0.0330386
0.0342264
0.0353445
0.0364185
0.0374166
0.0382466
0.0386782
0.0380528
0.0379909
0.0378169
0.0377484
0.03767
0.0375995
0.0375094
0.0373954
0.0372518
0.0370807
0.036886
0.0366701
0.0364353
0.0361845
0.0359208
0.0356477
0.035368
0.0350846
0.0348
0.0345166
0.0342368
0.0339628
0.0336968
0.0334408
0.0331968
0.0329666
0.0327518
0.032554
0.0323747
0.032215
0.0320761
0.0319589
0.0318642
0.0317926
0.0317446
0.0317205
0.0339213
0.0339468
0.0339976
0.0340735
0.0341738
0.0342979
0.0344449
0.0346138
0.0348034
0.0350123
0.0352391
0.0354819
0.0357391
0.0360085
0.0362881
0.0365756
0.0368688
0.037165
0.037462
0.037757
0.0380474
0.0383301
0.0386018
0.0388585
0.0390959
0.0393105
0.0395002
0.0396634
0.0397911
0.0398721
0.0399243
0.0399248
0.0399864
0.0398894
0.0403059
0.0396068
0.0384297
0.0369477
0.0350842
0.0323127
0.0303959
0.0287606
0.0272079
0.025625
0.0239617
0.0226715
0.0217197
0.0210444
0.0206087
0.0203945
0.0203945
0.0206087
0.0210444
0.0217197
0.0226715
0.0239617
0.025625
0.0272078
0.0287606
0.0303959
0.0323127
0.0350842
0.0369477
0.0384297
0.0396068
0.0403059
0.0398894
0.0399864
0.0399248
0.0399243
0.0398721
0.0397911
0.0396634
0.0395002
0.0393104
0.0390959
0.0388585
0.0386018
0.0383302
0.0380474
0.037757
0.037462
0.0371651
0.0368688
0.0365757
0.0362881
0.0360085
0.0357391
0.0354819
0.0352391
0.0350124
0.0348034
0.0346138
0.0344449
0.0342979
0.0341738
0.0340735
0.0339977
0.0339468
0.0339213
0.0359889
0.0360157
0.0360691
0.0361487
0.036254
0.0363841
0.0365383
0.0367153
0.0369138
0.0371325
0.0373696
0.0376233
0.0378916
0.0381723
0.0384632
0.0387617
0.0390654
0.0393716
0.0396777
0.0399811
0.0402789
0.0405682
0.0408451
0.0411049
0.0413415
0.0415496
0.041729
0.041886
0.0420018
0.0420251
0.0420553
0.0418664
0.0421238
0.0411832
0.0396403
0.0375426
0.0343943
0.0319463
0.0295873
0.0271202
0.0249462
0.0230032
0.0212081
0.0195122
0.0179305
0.0166025
0.0155608
0.0147969
0.0142966
0.0140491
0.0140491
0.0142966
0.0147969
0.0155608
0.0166025
0.0179304
0.0195122
0.021208
0.0230032
0.0249462
0.0271202
0.0295873
0.0319463
0.0343943
0.0375426
0.0396403
0.0411832
0.0421238
0.0418664
0.0420553
0.0420251
0.0420018
0.041886
0.041729
0.0415496
0.0413415
0.0411049
0.0408451
0.0405682
0.0402789
0.0399811
0.0396777
0.0393716
0.0390655
0.0387618
0.0384632
0.0381724
0.0378916
0.0376233
0.0373696
0.0371325
0.0369139
0.0367153
0.0365383
0.0363842
0.036254
0.0361488
0.0360692
0.0360158
0.035989
0.0379153
0.0379432
0.0379987
0.0380816
0.0381911
0.0383265
0.0384868
0.0386706
0.0388768
0.0391036
0.0393493
0.039612
0.0398893
0.0401791
0.0404788
0.0407856
0.0410969
0.0414097
0.0417214
0.0420293
0.0423308
0.0426233
0.0429032
0.0431646
0.0433981
0.0435921
0.043747
0.043909
0.0440561
0.0439149
0.0441419
0.0430925
0.0413598
0.0389811
0.0354384
0.0324504
0.0294226
0.026636
0.0239941
0.0214471
0.0190927
0.0169378
0.0149605
0.0131482
0.0115193
0.01013
0.00901388
0.00818106
0.00763005
0.0073562
0.0073562
0.00763006
0.00818106
0.00901387
0.01013
0.0115192
0.0131481
0.0149604
0.0169378
0.0190927
0.0214471
0.0239941
0.026636
0.0294226
0.0324504
0.0354384
0.0389811
0.0413598
0.0430925
0.0441419
0.0439149
0.0440561
0.043909
0.043747
0.0435921
0.0433981
0.0431646
0.0429032
0.0426233
0.0423308
0.0420293
0.0417214
0.0414097
0.0410969
0.0407856
0.0404788
0.0401791
0.0398894
0.039612
0.0393493
0.0391036
0.0388768
0.0386707
0.0384868
0.0383265
0.0381912
0.0380816
0.0379988
0.0379432
0.0379153
0.0396926
0.0397214
0.0397788
0.0398644
0.0399775
0.0401172
0.0402825
0.040472
0.0406843
0.0409177
0.0411702
0.0414397
0.041724
0.0420204
0.0423262
0.0426385
0.0429542
0.0432701
0.0435833
0.0438912
0.0441919
0.0444836
0.0447643
0.0450286
0.0452624
0.0454337
0.0455093
0.0456896
0.0461324
0.0451639
0.0434016
0.0409002
0.0371482
0.0338637
0.0304477
0.0271845
0.0240166
0.0210066
0.0181491
0.0154414
0.0129153
0.0105845
0.00845067
0.00651564
0.00479431
0.00331983
0.00212652
0.00123174
0.000638409
0.000343292
0.000343292
0.000638419
0.00123174
0.00212652
0.00331983
0.0047943
0.00651562
0.00845064
0.0105845
0.0129152
0.0154414
0.0181491
0.0210066
0.0240166
0.0271845
0.0304477
0.0338638
0.0371482
0.0409002
0.0434016
0.0451639
0.0461324
0.0456896
0.0455093
0.0454337
0.0452624
0.0450286
0.0447642
0.0444836
0.0441919
0.0438913
0.0435833
0.0432701
0.0429542
0.0426385
0.0423262
0.0420204
0.041724
0.0414398
0.0411702
0.0409177
0.0406843
0.040472
0.0402825
0.0401172
0.0399775
0.0398644
0.0397789
0.0397215
0.0396927
0.0413139
0.0413435
0.0414024
0.0414901
0.041606
0.0417491
0.0419183
0.0421121
0.042329
0.0425672
0.0428246
0.043099
0.0433878
0.0436884
0.0439977
0.0443125
0.0446293
0.0449445
0.0452548
0.0455573
0.0458508
0.0461355
0.0464138
0.0466866
0.0469434
0.0471165
0.0469039
0.0469348
0.0455143
0.0431012
0.0393029
0.0358756
0.032233
0.0286637
0.0251133
0.0216541
0.0183049
0.0150969
0.0120455
0.00916323
0.00646822
0.0039754
0.00169732
-0.000362424
-0.0021978
-0.00378185
-0.00506163
-0.00601522
-0.00664368
-0.00695501
-0.006955
-0.00664368
-0.00601524
-0.00506165
-0.00378186
-0.0021978
-0.000362445
0.00169728
0.00397537
0.00646818
0.00916319
0.0120454
0.0150969
0.0183049
0.0216541
0.0251133
0.0286637
0.032233
0.0358756
0.0393029
0.0431012
0.0455144
0.0469348
0.046904
0.0471165
0.0469434
0.0466866
0.0464137
0.0461355
0.0458507
0.0455573
0.0452548
0.0449445
0.0446293
0.0443125
0.0439977
0.0436884
0.0433878
0.043099
0.0428246
0.0425672
0.0423291
0.0421121
0.0419183
0.0417491
0.041606
0.0414901
0.0414024
0.0413435
0.041314
0.0427728
0.0428029
0.0428629
0.0429522
0.0430701
0.0432157
0.0433875
0.0435843
0.0438043
0.0440455
0.0443058
0.0445828
0.0448738
0.045176
0.0454861
0.0458005
0.0461153
0.046426
0.0467284
0.047019
0.0472966
0.0475636
0.0478289
0.0481115
0.0484485
0.0489159
0.0477795
0.0455261
0.041788
0.0383361
0.034592
0.0308477
0.0270507
0.0232745
0.0195414
0.0158906
0.012351
0.00895091
0.00571299
0.00265732
-0.000203722
-0.00285455
-0.00526537
-0.0074421
-0.00940596
-0.0111418
-0.0125212
-0.0135262
-0.0141775
-0.0144971
-0.0144971
-0.0141775
-0.0135262
-0.0125213
-0.0111419
-0.00940598
-0.00744212
-0.0052654
-0.00285459
-0.000203743
0.00265732
0.00571297
0.00895089
0.012351
0.0158906
0.0195414
0.0232745
0.0270507
0.0308477
0.034592
0.0383361
0.041788
0.0455261
0.0477794
0.0489159
0.0484485
0.0481115
0.0478289
0.0475636
0.0472965
0.047019
0.0467284
0.046426
0.0461152
0.0458005
0.0454861
0.045176
0.0448738
0.0445828
0.0443058
0.0440455
0.0438043
0.0435844
0.0433876
0.0432157
0.0430702
0.0429522
0.0428629
0.0428029
0.0427728
0.0440634
0.0440939
0.0441545
0.0442449
0.0443641
0.0445111
0.0446845
0.0448828
0.0451041
0.0453465
0.0456076
0.0458849
0.0461757
0.0464768
0.0467851
0.0470964
0.0474062
0.0477092
0.0479993
0.0482709
0.0485212
0.0487523
0.048976
0.0492207
0.0495503
0.0482126
0.0456667
0.0415087
0.0375275
0.0336377
0.0296806
0.0256967
0.0216968
0.0177167
0.0137865
0.0099393
0.00620454
0.00261218
-0.00081078
-0.00403199
-0.00705565
-0.00987662
-0.0123981
-0.0146558
-0.0167499
-0.018754
-0.0202415
-0.02127
-0.0219178
-0.0222316
-0.0222317
-0.0219178
-0.02127
-0.0202415
-0.018754
-0.01675
-0.0146558
-0.0123981
-0.00987664
-0.00705566
-0.00403201
-0.000810791
0.00261213
0.00620452
0.00993928
0.0137865
0.0177166
0.0216968
0.0256967
0.0296806
0.0336377
0.0375275
0.0415087
0.0456666
0.0482126
0.0495503
0.0492207
0.048976
0.0487523
0.0485211
0.0482709
0.0479992
0.0477091
0.0474062
0.0470964
0.046785
0.0464768
0.0461756
0.0458849
0.0456076
0.0453465
0.0451042
0.0448828
0.0446845
0.0445111
0.0443641
0.0442449
0.0441546
0.0440939
0.0440634
0.0451807
0.0452113
0.0452723
0.0453631
0.0454828
0.0456302
0.0458039
0.0460023
0.0462233
0.0464649
0.0467246
0.0469998
0.0472877
0.0475852
0.0478888
0.0481946
0.0484974
0.0487906
0.0490655
0.0493125
0.0495239
0.049698
0.0498415
0.049973
0.0482149
0.0446163
0.0410785
0.0370761
0.0329642
0.028821
0.0246363
0.0204283
0.0162164
0.0120281
0.00789421
0.00384643
-8.85679e-05
-0.0038763
-0.00749369
-0.0108548
-0.0140258
-0.0170947
-0.0196739
-0.0218974
-0.0240337
-0.0267178
-0.0282453
-0.0292119
-0.0298054
-0.0300911
-0.0300911
-0.0298054
-0.0292119
-0.0282453
-0.0267178
-0.0240337
-0.0218975
-0.0196739
-0.0170947
-0.0140258
-0.0108548
-0.0074937
-0.0038763
-8.85679e-05
0.00384642
0.0078942
0.0120281
0.0162164
0.0204283
0.0246363
0.028821
0.0329642
0.0370761
0.0410785
0.0446163
0.0482149
0.049973
0.0498415
0.0496979
0.0495239
0.0493125
0.0490655
0.0487906
0.0484974
0.0481946
0.0478888
0.0475852
0.0472877
0.0469998
0.0467246
0.0464649
0.0462233
0.0460023
0.045804
0.0456302
0.0454828
0.0453632
0.0452724
0.0452114
0.0451807
0.0461202
0.0461509
0.0462118
0.0463024
0.0464218
0.0465687
0.0467415
0.0469384
0.0471574
0.0473962
0.0476522
0.0479228
0.0482051
0.048496
0.0487922
0.04909
0.0493845
0.0496682
0.049929
0.0501496
0.0503145
0.0504148
0.0504496
0.0485146
0.0446265
0.0407092
0.0367276
0.0325525
0.028259
0.0238996
0.019497
0.0150731
0.0106494
0.00625
0.00190793
-0.00233996
-0.00648333
-0.0104641
-0.0143374
-0.0177495
-0.0209584
-0.0246414
-0.0271271
-0.029033
-0.0305613
-0.0317889
-0.0327496
-0.0334603
-0.0339302
-0.0341641
-0.0341641
-0.0339302
-0.0334604
-0.0327496
-0.0317889
-0.0305613
-0.029033
-0.0271271
-0.0246414
-0.0209584
-0.0177496
-0.0143374
-0.0104641
-0.00648333
-0.00233996
0.00190791
0.00624999
0.0106494
0.0150731
0.019497
0.0238996
0.028259
0.0325524
0.0367276
0.0407092
0.0446265
0.0485145
0.0504496
0.0504148
0.0503145
0.0501496
0.049929
0.0496682
0.0493845
0.04909
0.0487922
0.048496
0.0482051
0.0479228
0.0476523
0.0473962
0.0471575
0.0469385
0.0467415
0.0465687
0.0464219
0.0463025
0.0462119
0.0461509
0.0461203
0.0468784
0.0469088
0.0469693
0.0470593
0.0471776
0.0473229
0.0474936
0.0476877
0.047903
0.0481369
0.048387
0.0486502
0.0489237
0.0492046
0.0494899
0.0497769
0.0500623
0.0503399
0.0505946
0.0507948
0.0509123
0.0509299
0.0489302
0.04492
0.0408247
0.0366496
0.0323796
0.0279837
0.0234849
0.018915
0.0143015
0.00966948
0.00503918
0.000424956
-0.004133
-0.00856281
-0.0129446
-0.0170359
-0.0214924
-0.0246746
-0.0272221
-0.0293433
-0.0311015
-0.0324758
-0.0333102
-0.0330402
-0.0334119
-0.0338537
-0.0341925
-0.034371
-0.034371
-0.0341925
-0.0338537
-0.0334119
-0.0330402
-0.0333102
-0.0324758
-0.0311015
-0.0293433
-0.0272221
-0.0246746
-0.0214924
-0.0170359
-0.0129446
-0.00856284
-0.00413302
0.000424956
0.00503916
0.00966947
0.0143015
0.018915
0.0234849
0.0279837
0.0323796
0.0366496
0.0408247
0.04492
0.0489302
0.0509299
0.0509123
0.0507948
0.0505947
0.0503399
0.0500623
0.0497769
0.0494899
0.0492046
0.0489237
0.0486502
0.048387
0.048137
0.047903
0.0476878
0.0474937
0.047323
0.0471776
0.0470593
0.0469694
0.0469089
0.0468784
0.0474522
0.0474822
0.047542
0.0476307
0.0477473
0.0478902
0.0480576
0.0482474
0.0484573
0.0486844
0.048926
0.049179
0.0494404
0.0497073
0.0499771
0.0502486
0.0505222
0.0507997
0.0510702
0.051268
0.0513453
0.0493678
0.0453353
0.0411721
0.0368916
0.0325017
0.0280021
0.0233914
0.0186848
0.0139072
0.00908803
0.00425851
-0.000561943
-0.00540011
-0.010215
-0.0147165
-0.0195489
-0.0230671
-0.0258937
-0.0281858
-0.0298479
-0.0303319
-0.0313739
-0.0323658
-0.0330682
-0.0333821
-0.0337363
-0.034081
-0.0343445
-0.0344851
-0.0344851
-0.0343445
-0.034081
-0.0337363
-0.0333821
-0.0330682
-0.0323658
-0.0313739
-0.0303319
-0.0298479
-0.0281858
-0.0258937
-0.0230671
-0.0195489
-0.0147165
-0.010215
-0.00540011
-0.000561932
0.0042585
0.00908801
0.0139072
0.0186848
0.0233914
0.0280022
0.0325016
0.0368916
0.0411721
0.0453353
0.0493678
0.0513452
0.051268
0.0510702
0.0507997
0.0505222
0.0502486
0.0499772
0.0497073
0.0494404
0.049179
0.048926
0.0486844
0.0484573
0.0482475
0.0480577
0.0478902
0.0477473
0.0476308
0.047542
0.0474823
0.0474522
0.0478394
0.0478689
0.0479276
0.0480146
0.0481287
0.0482684
0.0484315
0.0486158
0.0488186
0.049037
0.0492677
0.0495076
0.0497534
0.0500017
0.0502498
0.0504967
0.0507479
0.0510263
0.0513676
0.0516005
0.049741
0.0457775
0.0416355
0.0373337
0.0328887
0.028313
0.0236153
0.0188046
0.0138963
0.00891334
0.00388917
-0.00112494
-0.0060763
-0.0111464
-0.0164753
-0.0203733
-0.0234467
-0.0257465
-0.0267698
-0.0282546
-0.0295724
-0.0305066
-0.0314377
-0.0322836
-0.0329517
-0.033422
-0.0338091
-0.0341274
-0.0343568
-0.0344768
-0.0344768
-0.0343568
-0.0341274
-0.0338091
-0.033422
-0.0329517
-0.0322836
-0.0314378
-0.0305066
-0.0295724
-0.0282546
-0.0267698
-0.0257465
-0.0234468
-0.0203733
-0.0164753
-0.0111464
-0.00607628
-0.00112494
0.00388918
0.00891336
0.0138963
0.0188046
0.0236153
0.028313
0.0328887
0.0373337
0.0416355
0.0457775
0.049741
0.0516005
0.0513676
0.0510263
0.0507479
0.0504967
0.0502498
0.0500017
0.0497534
0.0495077
0.0492677
0.049037
0.0488186
0.0486158
0.0484315
0.0482684
0.0481288
0.0480147
0.0479277
0.047869
0.0478394
0.0480385
0.0480674
0.0481247
0.0482097
0.0483208
0.0484564
0.0486144
0.048792
0.0489863
0.0491941
0.0494119
0.049636
0.0498627
0.050088
0.0503073
0.0505155
0.0507124
0.0509454
0.0515169
0.0499374
0.0461601
0.042132
0.0378898
0.0334616
0.028869
0.0241287
0.0192548
0.0142605
0.00916029
0.00397164
-0.001275
-0.00649263
-0.0113597
-0.0164866
-0.0201607
-0.0228241
-0.0240699
-0.0256429
-0.0269457
-0.0282468
-0.0294329
-0.030436
-0.0313364
-0.0321268
-0.0327796
-0.0332915
-0.0336969
-0.0340089
-0.0342238
-0.0343339
-0.0343339
-0.0342238
-0.0340089
-0.033697
-0.0332916
-0.0327796
-0.0321268
-0.0313364
-0.030436
-0.0294329
-0.0282469
-0.0269457
-0.0256429
-0.0240699
-0.0228241
-0.0201607
-0.0164866
-0.0113597
-0.00649263
-0.001275
0.00397164
0.00916029
0.0142605
0.0192548
0.0241287
0.028869
0.0334616
0.0378898
0.042132
0.0461601
0.0499374
0.0515169
0.0509454
0.0507124
0.0505155
0.0503073
0.050088
0.0498627
0.049636
0.0494119
0.0491942
0.0489864
0.048792
0.0486144
0.0484565
0.0483209
0.0482097
0.0481248
0.0480674
0.0480385
0.0480488
0.0480769
0.0481327
0.0482152
0.048323
0.048454
0.048606
0.048776
0.0489608
0.0491565
0.0493593
0.0495652
0.04977
0.0499695
0.0501574
0.0503183
0.0504043
0.0502789
0.0497353
0.0463953
0.0425988
0.0384964
0.0341537
0.029607
0.0248803
0.0199928
0.0149615
0.00980233
0.00452677
-0.000863
-0.00638337
-0.0120903
-0.0162299
-0.0192703
-0.0208251
-0.0226473
-0.0241407
-0.0255798
-0.0268912
-0.028119
-0.0292384
-0.0302281
-0.0311033
-0.0318643
-0.0325039
-0.0330228
-0.0334329
-0.0337416
-0.0339497
-0.0340548
-0.0340548
-0.0339497
-0.0337416
-0.0334329
-0.0330228
-0.0325039
-0.0318643
-0.0311033
-0.0302281
-0.0292384
-0.028119
-0.0268913
-0.0255798
-0.0241408
-0.0226473
-0.0208252
-0.0192704
-0.0162299
-0.0120903
-0.00638338
-0.000863021
0.00452676
0.00980233
0.0149615
0.0199928
0.0248803
0.029607
0.0341537
0.0384964
0.0425988
0.0463953
0.0497353
0.0502789
0.0504043
0.0503183
0.0501574
0.0499695
0.04977
0.0495652
0.0493593
0.0491565
0.0489608
0.0487761
0.0486061
0.0484541
0.048323
0.0482153
0.0481328
0.048077
0.0480488
0.0478703
0.0478976
0.0479516
0.0480315
0.0481355
0.0482616
0.0484071
0.0485689
0.0487433
0.0489258
0.0491121
0.0492975
0.0494779
0.0496504
0.0498143
0.0499673
0.0500702
0.0497855
0.0466803
0.0430816
0.0391402
0.0349248
0.0304742
0.0258146
0.0209659
0.0159463
0.0107754
0.0054742
5.67936e-05
-0.00548078
-0.0111805
-0.0152698
-0.018188
-0.0195125
-0.0210128
-0.0225842
-0.0240479
-0.0254232
-0.0266965
-0.0278728
-0.0289445
-0.0299036
-0.0307517
-0.0314888
-0.0321134
-0.0326267
-0.0330335
-0.0333379
-0.0335412
-0.0336432
-0.0336432
-0.0335412
-0.0333379
-0.0330335
-0.0326267
-0.0321134
-0.0314888
-0.0307517
-0.0299036
-0.0289445
-0.0278728
-0.0266965
-0.0254232
-0.024048
-0.0225842
-0.0210128
-0.0195125
-0.0181881
-0.0152698
-0.0111805
-0.00548079
5.67936e-05
0.0054742
0.0107754
0.0159463
0.0209659
0.0258146
0.0304743
0.0349248
0.0391402
0.0430816
0.0466803
0.0497855
0.0500702
0.0499673
0.0498143
0.0496504
0.0494779
0.0492975
0.0491121
0.0489258
0.0487433
0.048569
0.0484072
0.0482616
0.0481355
0.0480315
0.0479517
0.0478976
0.0478703
0.0475036
0.04753
0.0475822
0.0476592
0.0477593
0.0478803
0.0480192
0.0481726
0.0483361
0.0485049
0.0486736
0.0488363
0.0489883
0.0491272
0.0492611
0.0494363
0.0498842
0.0480467
0.0438927
0.0399076
0.0357785
0.031439
0.0268837
0.0221217
0.0171648
0.0120271
0.00673003
0.00130854
-0.0042097
-0.00981472
-0.0136061
-0.015613
-0.0177181
-0.0193772
-0.0209259
-0.0224219
-0.0238335
-0.0251558
-0.0263829
-0.0275133
-0.0285428
-0.0294677
-0.0302872
-0.0310006
-0.0316078
-0.0321098
-0.0325087
-0.0328069
-0.0330055
-0.0331048
-0.0331048
-0.0330054
-0.0328069
-0.0325087
-0.0321098
-0.0316078
-0.0310006
-0.0302872
-0.0294677
-0.0285428
-0.0275132
-0.0263829
-0.0251558
-0.0238335
-0.0224219
-0.0209259
-0.0193773
-0.0177182
-0.0156131
-0.0136061
-0.00981474
-0.00420971
0.00130853
0.00673003
0.0120272
0.0171648
0.0221217
0.0268838
0.031439
0.0357785
0.0399076
0.0438927
0.0480467
0.0498841
0.0494363
0.0492611
0.0491272
0.0489883
0.0488364
0.0486736
0.0485049
0.0483361
0.0481726
0.0480193
0.0478803
0.0477594
0.0476593
0.0475823
0.04753
0.0475036
0.0469501
0.0469755
0.0470259
0.0471
0.0471962
0.047312
0.0474444
0.0475895
0.0477426
0.047898
0.0480489
0.0481878
0.0483065
0.0483965
0.0484455
0.0484025
0.0479198
0.0445689
0.0407298
0.0366979
0.0324747
0.0280451
0.023406
0.0185609
0.0135147
0.00827204
0.00284941
-0.00268296
-0.00827385
-0.0119874
-0.0138191
-0.0156755
-0.0175046
-0.0191594
-0.0206959
-0.022145
-0.0235066
-0.024779
-0.0259592
-0.0270451
-0.0280341
-0.0289241
-0.0297137
-0.0304025
-0.0309903
-0.0314777
-0.0318659
-0.0321562
-0.0323494
-0.0324459
-0.0324459
-0.0323494
-0.0321562
-0.0318659
-0.0314777
-0.0309903
-0.0304025
-0.0297138
-0.0289241
-0.0280342
-0.0270451
-0.0259592
-0.024779
-0.0235067
-0.022145
-0.0206959
-0.0191595
-0.0175047
-0.0156755
-0.0138191
-0.0119874
-0.00827385