/*--------------------------------*- C++ -*----------------------------------*\
  =========                 |
  \\      /  F ield         | OpenFOAM: The Open Source CFD Toolbox
   \\    /   O peration     | Website:  https://openfoam.org
    \\  /    A nd           | Version:  7
     \\/     M anipulation  |
\*---------------------------------------------------------------------------*/
FoamFile
{
    version     2.0;
    format      ascii;
    class       volScalarField;
    location    "0.026";
    object      gradTx;
}
// * * * * * * * * * * * * * * * * * * * * * * * * * * * * * * * * * * * * * //

dimensions      [0 -1 0 1 0 0 0];

internalField   nonuniform List<scalar> 
10000
(
0.00397256
0.0119065
0.0198058
0.0276474
0.0354085
0.0430658
0.0505962
0.0579764
0.065183
0.0721929
0.0789827
0.085529
0.0918087
0.0977987
0.103476
0.108818
0.113802
0.118406
0.122611
0.126393
0.129735
0.132618
0.135023
0.136934
0.138336
0.139215
0.139559
0.139356
0.138597
0.137274
0.13538
0.132911
0.129865
0.126244
0.122051
0.117295
0.111988
0.106146
0.099791
0.092946
0.0856384
0.0778972
0.0697538
0.0612423
0.0524007
0.0432724
0.0339053
0.0243515
0.0146642
0.00489707
-0.00489653
-0.0146636
-0.0243509
-0.0339049
-0.0432719
-0.0524002
-0.0612418
-0.0697533
-0.0778967
-0.0856378
-0.0929455
-0.0997904
-0.106146
-0.111987
-0.117294
-0.12205
-0.126243
-0.129865
-0.13291
-0.135379
-0.137273
-0.138597
-0.139356
-0.139559
-0.139215
-0.138336
-0.136934
-0.135023
-0.132618
-0.129735
-0.126393
-0.122611
-0.118407
-0.113802
-0.108818
-0.103476
-0.0977986
-0.0918087
-0.085529
-0.0789826
-0.0721928
-0.0651829
-0.0579762
-0.0505961
-0.0430658
-0.0354085
-0.0276474
-0.0198056
-0.0119062
-0.00397253
0.00398589
0.0119466
0.0198729
0.0277413
0.035529
0.0432131
0.0507701
0.0581769
0.0654102
0.0724465
0.0792625
0.0858348
0.0921402
0.0981554
0.103857
0.109224
0.114231
0.118859
0.123085
0.126888
0.13025
0.13315
0.135572
0.137499
0.138915
0.139806
0.140161
0.139967
0.139214
0.137896
0.136005
0.133536
0.130488
0.12686
0.122657
0.117887
0.112561
0.106696
0.100314
0.0934396
0.0861001
0.0783248
0.0701445
0.0615919
0.0527042
0.0435247
0.0341029
0.0244926
0.0147485
0.00492514
-0.00492456
-0.014748
-0.024492
-0.0341024
-0.0435242
-0.0527037
-0.0615914
-0.070144
-0.0783243
-0.0860995
-0.0934391
-0.100314
-0.106696
-0.11256
-0.117886
-0.122657
-0.12686
-0.130487
-0.133536
-0.136004
-0.137896
-0.139214
-0.139966
-0.14016
-0.139806
-0.138915
-0.137499
-0.135572
-0.13315
-0.13025
-0.126888
-0.123085
-0.118859
-0.114231
-0.109224
-0.103857
-0.0981553
-0.0921401
-0.0858347
-0.0792624
-0.0724464
-0.06541
-0.0581768
-0.0507701
-0.043213
-0.0355291
-0.0277413
-0.0198728
-0.0119464
-0.00398582
0.00401269
0.0120268
0.0200067
0.0279288
0.0357702
0.0435077
0.0511181
0.0585782
0.0658646
0.0729537
0.0798223
0.0864467
0.0928035
0.0988694
0.104621
0.110036
0.115091
0.119764
0.124033
0.127879
0.131279
0.134217
0.136672
0.13863
0.140073
0.140989
0.141365
0.141188
0.140451
0.139143
0.137257
0.13479
0.131737
0.128097
0.123874
0.119074
0.11371
0.107799
0.101363
0.094429
0.0870255
0.0791828
0.0709298
0.0622962
0.0533161
0.044033
0.0344998
0.0247749
0.0149168
0.00498091
-0.00498038
-0.0149162
-0.0247744
-0.0344993
-0.0440325
-0.0533156
-0.0622957
-0.0709293
-0.0791823
-0.087025
-0.0944284
-0.101363
-0.107799
-0.11371
-0.119074
-0.123873
-0.128097
-0.131736
-0.13479
-0.137257
-0.139142
-0.14045
-0.141188
-0.141364
-0.140989
-0.140073
-0.13863
-0.136672
-0.134217
-0.131279
-0.127879
-0.124034
-0.119764
-0.115091
-0.110036
-0.104621
-0.0988694
-0.0928034
-0.0864466
-0.0798221
-0.0729536
-0.0658645
-0.0585781
-0.051118
-0.0435076
-0.03577
-0.0279287
-0.0200068
-0.012027
-0.00401274
0.004053
0.0121475
0.0202075
0.02821
0.0361318
0.0439496
0.0516402
0.0591803
0.0665464
0.0737149
0.0806624
0.087365
0.0937993
0.0999414
0.105768
0.111256
0.116382
0.121124
0.125459
0.129367
0.132827
0.135819
0.138326
0.14033
0.141815
0.142767
0.143175
0.143025
0.142309
0.141017
0.139142
0.136677
0.133618
0.129962
0.125709
0.120867
0.115445
0.109463
0.102944
0.0959178
0.0884179
0.0804759
0.072118
0.0633662
0.0542474
0.0448047
0.0350988
0.025198
0.0151673
0.00506371
-0.00506317
-0.0151667
-0.0251974
-0.0350983
-0.0448042
-0.0542469
-0.0633657
-0.0721175
-0.0804754
-0.0884173
-0.0959173
-0.102943
-0.109462
-0.115445
-0.120866
-0.125709
-0.129961
-0.133618
-0.136677
-0.139142
-0.141017
-0.142309
-0.143025
-0.143174
-0.142767
-0.141815
-0.140329
-0.138326
-0.135819
-0.132827
-0.129367
-0.125459
-0.121124
-0.116382
-0.111256
-0.105768
-0.0999414
-0.0937992
-0.0873649
-0.0806623
-0.0737148
-0.0665463
-0.0591802
-0.0516401
-0.0439495
-0.0361316
-0.0282099
-0.0202076
-0.0121476
-0.004053
0.00410662
0.0123083
0.0204754
0.0285851
0.0366139
0.0445388
0.0523364
0.0599833
0.0674559
0.0747305
0.0817834
0.0885906
0.0951284
0.101373
0.107299
0.112885
0.118107
0.122941
0.127365
0.131357
0.134896
0.137962
0.140537
0.142603
0.144144
0.145145
0.145595
0.145482
0.144795
0.143526
0.141666
0.139207
0.136142
0.132466
0.128177
0.123277
0.117778
0.111698
0.105064
0.0979103
0.0902794
0.0822092
0.0737218
0.064822
0.0555184
0.0458527
0.0359031
0.0257582
0.015495
0.00517129
-0.00517074
-0.0154945
-0.0257576
-0.0359025
-0.0458522
-0.0555179
-0.0648216
-0.0737213
-0.0822087
-0.0902789
-0.0979098
-0.105063
-0.111698
-0.117778
-0.123277
-0.128176
-0.132466
-0.136142
-0.139207
-0.141666
-0.143526
-0.144795
-0.145481
-0.145595
-0.145145
-0.144143
-0.142603
-0.140537
-0.137962
-0.134896
-0.131357
-0.127365
-0.122941
-0.118107
-0.112885
-0.107299
-0.101373
-0.0951283
-0.0885906
-0.0817833
-0.0747304
-0.0674558
-0.0599832
-0.0523363
-0.0445388
-0.0366139
-0.028585
-0.0204755
-0.0123083
-0.00410661
0.00417357
0.0125092
0.0208102
0.0290538
0.0372166
0.0452754
0.0532068
0.0609874
0.0685934
0.0760009
0.0831859
0.0901244
0.096792
0.103164
0.109217
0.114927
0.120268
0.125218
0.129754
0.133852
0.137491
0.140651
0.143311
0.145455
0.147065
0.148128
0.148631
0.148563
0.147914
0.146675
0.144837
0.142389
0.139322
0.135627
0.131295
0.126326
0.120729
0.114521
0.107734
0.100409
0.0926066
0.0843836
0.0757589
0.0667
0.0571671
0.0471974
0.0369124
0.0264437
0.0158876
0.00529864
-0.00529803
-0.0158871
-0.0264432
-0.0369119
-0.0471969
-0.0571666
-0.0666995
-0.0757585
-0.0843831
-0.092606
-0.100409
-0.107734
-0.114521
-0.120728
-0.126326
-0.131295
-0.135626
-0.139322
-0.142389
-0.144836
-0.146675
-0.147914
-0.148563
-0.148631
-0.148128
-0.147065
-0.145455
-0.143311
-0.140651
-0.137491
-0.133852
-0.129754
-0.125218
-0.120268
-0.114927
-0.109217
-0.103164
-0.0967919
-0.0901243
-0.0831858
-0.0760008
-0.0685933
-0.0609873
-0.0532068
-0.0452754
-0.0372166
-0.0290538
-0.0208102
-0.0125092
-0.00417356
0.00425391
0.0127501
0.0212119
0.0296162
0.0379397
0.0461594
0.0542516
0.0621928
0.0699591
0.0775265
0.0848707
0.0919673
0.0987917
0.105319
0.111524
0.117383
0.12287
0.127961
0.132631
0.136858
0.140619
0.143892
0.146656
0.148893
0.150588
0.151724
0.152291
0.152277
0.151674
0.150472
0.148664
0.146236
0.143175
0.139465
0.13509
0.130042
0.124324
0.117957
0.110973
0.103414
0.0953793
0.0869826
0.0782506
0.0690695
0.0592673
0.0488697
0.038115
0.0272234
0.0163173
0.00543492
-0.00543434
-0.0163167
-0.0272229
-0.0381145
-0.0488692
-0.0592667
-0.069069
-0.0782502
-0.086982
-0.0953788
-0.103414
-0.110972
-0.117957
-0.124323
-0.130041
-0.13509
-0.139465
-0.143175
-0.146236
-0.148663
-0.150472
-0.151673
-0.152277
-0.152291
-0.151724
-0.150588
-0.148893
-0.146656
-0.143891
-0.140619
-0.136858
-0.132631
-0.127961
-0.12287
-0.117383
-0.111524
-0.105319
-0.0987915
-0.0919672
-0.0848706
-0.0775264
-0.069959
-0.0621927
-0.0542515
-0.0461593
-0.0379398
-0.0296162
-0.0212119
-0.0127501
-0.00425388
0.00434754
0.0130311
0.0216803
0.0302721
0.0387832
0.0471906
0.0554706
0.0635995
0.0715533
0.0793078
0.0868385
0.0941205
0.101129
0.107838
0.114222
0.120257
0.125915
0.131173
0.136003
0.140383
0.144287
0.147693
0.15058
0.152928
0.15472
0.155942
0.156582
0.15663
0.15608
0.154924
0.153155
0.15076
0.14772
0.144009
0.139598
0.134463
0.128601
0.122043
0.114814
0.106923
0.0985379
0.0899385
0.0812108
0.0720766
0.0619768
0.0509105
0.0394637
0.028024
0.016727
0.00555944
-0.00555885
-0.0167264
-0.0280235
-0.0394631
-0.05091
-0.0619763
-0.0720761
-0.0812103
-0.089938
-0.0985374
-0.106923
-0.114814
-0.122043
-0.128601
-0.134462
-0.139597
-0.144009
-0.14772
-0.15076
-0.153155
-0.154924
-0.156079
-0.15663
-0.156581
-0.155942
-0.15472
-0.152928
-0.150579
-0.147693
-0.144287
-0.140383
-0.136003
-0.131172
-0.125915
-0.120257
-0.114222
-0.107838
-0.101129
-0.0941204
-0.0868384
-0.0793077
-0.0715532
-0.0635994
-0.0554705
-0.0471905
-0.0387833
-0.0302721
-0.0216803
-0.0130311
-0.00434753
0.00445448
0.013352
0.0222152
0.0310213
0.0397469
0.0483688
0.0568637
0.0652075
0.0733762
0.0813453
0.08909
0.096585
0.103805
0.110723
0.117315
0.123552
0.129409
0.134859
0.139876
0.144432
0.148503
0.152065
0.155093
0.157569
0.159473
0.160792
0.161513
0.16163
0.161138
0.160035
0.158316
0.155972
0.152977
0.149292
0.144865
0.139644
0.133607
0.126831
0.119345
0.110951
0.101934
0.0930431
0.0845954
0.0760647
0.0656658
0.0533426
0.0408134
0.0286881
0.017011
0.0056359
-0.00563529
-0.0170104
-0.0286875
-0.0408129
-0.0533421
-0.0656652
-0.0760642
-0.0845949
-0.0930426
-0.101933
-0.110951
-0.119345
-0.12683
-0.133607
-0.139644
-0.144864
-0.149292
-0.152976
-0.155971
-0.158316
-0.160034
-0.161137
-0.16163
-0.161513
-0.160792
-0.159473
-0.157569
-0.155093
-0.152065
-0.148503
-0.144432
-0.139876
-0.134859
-0.129409
-0.123552
-0.117315
-0.110723
-0.103805
-0.0965849
-0.0890898
-0.0813452
-0.0733761
-0.0652074
-0.0568636
-0.0483688
-0.0397468
-0.0310212
-0.0222152
-0.013352
-0.00445448
0.00457469
0.0137126
0.0228165
0.0318634
0.0408302
0.0496938
0.0584305
0.0670166
0.0754276
0.083639
0.0916256
0.0993618
0.106821
0.113978
0.120804
0.127273
0.133357
0.139028
0.144257
0.149017
0.15328
0.157019
0.16021
0.162831
0.164862
0.166288
0.167097
0.167285
0.166852
0.165804
0.164147
0.161874
0.158961
0.155355
0.150959
0.145675
0.139383
0.132354
0.124811
0.115627
0.105224
0.095724
0.0880795
0.081935
0.0712906
0.0559904
0.041767
0.0289096
0.0169963
0.00560958
-0.00560899
-0.0169957
-0.0289091
-0.0417664
-0.0559898
-0.07129
-0.0819345
-0.088079
-0.0957235
-0.105223
-0.115626
-0.124811
-0.132354
-0.139383
-0.145675
-0.150958
-0.155355
-0.158961
-0.161874
-0.164146
-0.165804
-0.166852
-0.167285
-0.167097
-0.166287
-0.164862
-0.162831
-0.16021
-0.157019
-0.15328
-0.149017
-0.144257
-0.139028
-0.133357
-0.127273
-0.120804
-0.113978
-0.106821
-0.0993617
-0.0916255
-0.0836389
-0.0754275
-0.0670165
-0.0584305
-0.0496938
-0.0408302
-0.0318634
-0.0228165
-0.0137127
-0.0045747
0.00470805
0.0141128
0.0234837
0.0327981
0.0420328
0.0511648
0.0601706
0.0690263
0.0777074
0.086189
0.0944458
0.102452
0.11018
0.117603
0.124694
0.131424
0.137764
0.143684
0.149155
0.154146
0.158628
0.162571
0.165947
0.168731
0.170903
0.172446
0.173349
0.173607
0.173225
0.172226
0.170631
0.168456
0.165675
0.162242
0.157971
0.152745
0.145925
0.138418
0.131941
0.121542
0.10763
0.0965671
0.0900785
0.0923171
0.0815808
0.0575698
0.0413616
0.0281923
0.0164583
0.00541625
-0.00541569
-0.0164577
-0.0281917
-0.041361
-0.0575693
-0.0815803
-0.0923166
-0.090078
-0.0965666
-0.107629
-0.121542
-0.131941
-0.138417
-0.145924
-0.152744
-0.157971
-0.162242
-0.165675
-0.168455
-0.170631
-0.172225
-0.173225
-0.173606
-0.173349
-0.172446
-0.170903
-0.168731
-0.165946
-0.162571
-0.158628
-0.154146
-0.149155
-0.143684
-0.137764
-0.131424
-0.124694
-0.117603
-0.11018
-0.102452
-0.0944457
-0.086189
-0.0777073
-0.0690262
-0.0601706
-0.0511648
-0.0420328
-0.032798
-0.0234837
-0.0141128
-0.00470806
0.00485452
0.0145522
0.0242164
0.0338245
0.0433538
0.0527811
0.0620831
0.0712358
0.0802148
0.0889949
0.0975504
0.105855
0.113881
0.121601
0.128987
0.136008
0.142634
0.148835
0.154579
0.159832
0.164562
0.168736
0.172321
0.175289
0.177618
0.17929
0.18029
0.180609
0.180257
0.179282
0.177734
0.175678
0.173076
0.169998
0.165969
0.161435
0.153178
0.143473
0.143014
0.130991
0.107203
0.0928524
0.0833636
0.0766627
0.0661324
0.051354
0.0379237
0.0260447
0.0152314
0.00501381
-0.00501324
-0.0152308
-0.0260441
-0.0379231
-0.0513534
-0.0661319
-0.0766622
-0.0833631
-0.0928519
-0.107203
-0.130991
-0.143013
-0.143473
-0.153178
-0.161435
-0.165969
-0.169997
-0.173075
-0.175677
-0.177733
-0.179281
-0.180257
-0.180609
-0.18029
-0.179289
-0.177618
-0.175289
-0.172321
-0.168736
-0.164562
-0.159832
-0.154579
-0.148835
-0.142634
-0.136008
-0.128987
-0.121601
-0.113881
-0.105855
-0.0975503
-0.0889948
-0.0802147
-0.0712358
-0.062083
-0.052781
-0.0433538
-0.0338245
-0.0242164
-0.0145522
-0.00485449
0.00501387
0.0150305
0.0250139
0.034942
0.0447922
0.0545415
0.0641667
0.0736439
0.0829487
0.0920557
0.100939
0.109572
0.117926
0.125973
0.133684
0.141028
0.147973
0.154488
0.160537
0.166087
0.171099
0.175535
0.179357
0.182532
0.185034
0.186846
0.187953
0.188322
0.187951
0.186945
0.18538
0.183478
0.180983
0.178732
0.174498
0.173872
0.161901
0.139303
0.126647
0.1132
0.0973566
0.0842908
0.0738742
0.0648484
0.0549411
0.0437979
0.032941
0.0228363
0.0134118
0.0044218
-0.00442122
-0.0134112
-0.0228358
-0.0329405
-0.0437973
-0.0549405
-0.0648479
-0.0738737
-0.0842903
-0.0973561
-0.1132
-0.126646
-0.139302
-0.161901
-0.173872
-0.174498
-0.178731
-0.180982
-0.183477
-0.185379
-0.186945
-0.187951
-0.188322
-0.187952
-0.186846
-0.185033
-0.182532
-0.179357
-0.175535
-0.171098
-0.166087
-0.160537
-0.154488
-0.147973
-0.141028
-0.133684
-0.125973
-0.117926
-0.109572
-0.100939
-0.0920556
-0.0829486
-0.0736439
-0.0641667
-0.0545414
-0.0447922
-0.034942
-0.0250139
-0.0150305
-0.00501384
0.00518597
0.015547
0.0258754
0.0361493
0.0463465
0.0564444
0.0664198
0.0762489
0.0859074
0.09537
0.10461
0.113601
0.122314
0.13072
0.138788
0.146487
0.153785
0.160648
0.167039
0.172922
0.178254
0.18299
0.187083
0.190489
0.193179
0.195149
0.196391
0.196813
0.196315
0.195203
0.193392
0.1919
0.188673
0.189472
0.179441
0.158654
0.142249
0.125209
0.111088
0.097823
0.0847486
0.0730957
0.0630078
0.0539275
0.0449957
0.0359638
0.0272131
0.0189528
0.0111606
0.00368387
-0.00368328
-0.01116
-0.0189522
-0.0272125
-0.0359633
-0.0449951
-0.0539269
-0.0630073
-0.0730952
-0.0847481
-0.0978226
-0.111088
-0.125209
-0.142249
-0.158654
-0.17944
-0.189472
-0.188672
-0.1919
-0.193392
-0.195202
-0.196315
-0.196812
-0.19639
-0.195148
-0.193179
-0.190489
-0.187083
-0.18299
-0.178254
-0.172922
-0.167039
-0.160648
-0.153785
-0.146487
-0.138788
-0.13072
-0.122314
-0.113601
-0.10461
-0.0953699
-0.0859074
-0.0762489
-0.0664197
-0.0564443
-0.0463466
-0.0361494
-0.0258754
-0.015547
-0.00518595
0.00537059
0.0161012
0.0267999
0.0374452
0.0480152
0.0584878
0.0688401
0.0790485
0.0890888
0.0989355
0.108562
0.117942
0.127044
0.135841
0.144299
0.152388
0.160073
0.167319
0.174091
0.180348
0.186046
0.191129
0.195535
0.1992
0.202083
0.204215
0.205684
0.206255
0.205325
0.204187
0.201114
0.202084
0.192358
0.172044
0.156138
0.139074
0.123251
0.108217
0.0946933
0.0822731
0.0707362
0.0603514
0.0511481
0.0428705
0.035161
0.0278576
0.0210017
0.0146065
0.00859706
0.00283733
-0.00283673
-0.00859646
-0.0146059
-0.0210012
-0.0278571
-0.0351605
-0.04287
-0.0511476
-0.0603508
-0.0707357
-0.0822726
-0.0946929
-0.108216
-0.123251
-0.139073
-0.156137
-0.172043
-0.192358
-0.202083
-0.201114
-0.204187
-0.205325
-0.206255
-0.205684
-0.204215
-0.202083
-0.1992
-0.195535
-0.191129
-0.186045
-0.180348
-0.174091
-0.167319
-0.160073
-0.152388
-0.144299
-0.135841
-0.127044
-0.117942
-0.108562
-0.0989355
-0.0890888
-0.0790485
-0.06884
-0.0584878
-0.0480152
-0.0374452
-0.0267999
-0.0161012
-0.00537061
0.00556753
0.0166924
0.0277861
0.0388277
0.0497959
0.0606691
0.0714247
0.0820395
0.0924895
0.102749
0.112792
0.122591
0.132115
0.141335
0.150217
0.158729
0.166837
0.174504
0.181696
0.188374
0.19449
0.199983
0.204766
0.208729
0.211773
0.213977
0.215906
0.217227
0.214571
0.215133
0.204816
0.183962
0.167632
0.150228
0.134013
0.118273
0.103486
0.0897329
0.0772152
0.0658587
0.0555896
0.0464419
0.0383778
0.0312585
0.0249316
0.0193134
0.0143371
0.00987965
0.00578706
0.00190623
-0.00190563
-0.00578645
-0.00987908
-0.0143366
-0.0193128
-0.024931
-0.031258
-0.0383773
-0.0464414
-0.0555891
-0.0658583
-0.0772148
-0.0897325
-0.103485
-0.118272
-0.134012
-0.150227
-0.167632
-0.183962
-0.204816
-0.215132
-0.214571
-0.217227
-0.215906
-0.213976
-0.211772
-0.208729
-0.204766
-0.199982
-0.19449
-0.188374
-0.181696
-0.174504
-0.166837
-0.158729
-0.150218
-0.141335
-0.132115
-0.122591
-0.112792
-0.102749
-0.0924895
-0.0820395
-0.0714247
-0.0606691
-0.049796
-0.0388277
-0.027786
-0.0166923
-0.00556756
0.00577643
0.0173194
0.0288323
0.0402947
0.0516861
0.0629851
0.07417
0.0852181
0.0961055
0.106807
0.117296
0.127546
0.137524
0.147201
0.156541
0.165512
0.174077
0.182202
0.189853
0.196996
0.203592
0.20958
0.214851
0.219209
0.222333
0.224041
0.226764
0.232201
0.220622
0.197957
0.180054
0.161339
0.144002
0.127244
0.111436
0.0965401
0.082709
0.0700354
0.0585966
0.0483767
0.0393399
0.0314658
0.0246781
0.0188678
0.0140052
0.0101371
0.00716158
0.0047935
0.00276862
0.000907299
-0.000906717
-0.00276803
-0.00479294
-0.00716103
-0.0101365
-0.0140047
-0.0188673
-0.0246775
-0.0314652
-0.0393394
-0.0483762
-0.0585962
-0.070035
-0.0827086
-0.0965396
-0.111436
-0.127243
-0.144002
-0.161338
-0.180054
-0.197957
-0.220622
-0.232201
-0.226763
-0.224041
-0.222332
-0.219209
-0.214851
-0.20958
-0.203592
-0.196996
-0.189853
-0.182202
-0.174077
-0.165512
-0.156541
-0.147201
-0.137524
-0.127546
-0.117297
-0.106807
-0.0961055
-0.0852181
-0.07417
-0.0629852
-0.0516861
-0.0402947
-0.0288323
-0.0173194
-0.00577649
0.00599695
0.0179813
0.0299368
0.0418438
0.0536823
0.065432
0.0770717
0.0885792
0.0999314
0.111104
0.122069
0.1328
0.143266
0.153434
0.163269
0.172734
0.181791
0.190407
0.198551
0.2062
0.213336
0.219924
0.22588
0.230952
0.234333
0.233116
0.234927
0.225191
0.198757
0.176041
0.156127
0.137358
0.119818
0.103333
0.0879702
0.0737662
0.0607975
0.0491255
0.0387804
0.0297318
0.0219468
0.0154208
0.0100168
0.005544
0.00209666
7.83611e-05
-0.00061321
-0.000629981
-0.000409816
-0.000137717
0.00013831
0.000410377
0.000630542
0.00061376
-7.78317e-05
-0.00209612
-0.0055435
-0.0100163
-0.0154203
-0.0219463
-0.0297314
-0.0387799
-0.0491251
-0.0607971
-0.0737657
-0.0879698
-0.103332
-0.119817
-0.137358
-0.156126
-0.17604
-0.198757
-0.225191
-0.234927
-0.233115
-0.234333
-0.230952
-0.22588
-0.219924
-0.213335
-0.2062
-0.198551
-0.190407
-0.181791
-0.172734
-0.163269
-0.153434
-0.143266
-0.1328
-0.122069
-0.111104
-0.0999314
-0.0885792
-0.0770717
-0.065432
-0.0536824
-0.0418437
-0.0299367
-0.0179813
-0.00599698
0.00622866
0.0186768
0.0310973
0.0434717
0.0557808
0.068005
0.0801241
0.0921169
0.103961
0.115632
0.127104
0.138349
0.149337
0.160032
0.170398
0.180394
0.189979
0.199115
0.207774
0.215949
0.223655
0.230927
0.237818
0.244408
0.250955
0.239181
0.215637
0.195876
0.173194
0.151344
0.131076
0.112174
0.0946019
0.0783242
0.0633704
0.0497812
0.0376132
0.026912
0.0176897
0.00984474
0.00331433
-0.00172779
-0.00555885
-0.00879032
-0.0112279
-0.011296
-0.0090542
-0.00628435
-0.00363646
-0.00118548
0.00118605
0.00363703
0.00628488
0.00905471
0.0112966
0.0112284
0.00879086
0.00555933
0.00172828
-0.00331387
-0.0098443
-0.0176893
-0.0269115
-0.0376127
-0.0497808
-0.06337
-0.0783238
-0.0946015
-0.112174
-0.131076
-0.151343
-0.173193
-0.195875
-0.215636
-0.239181
-0.250954
-0.244408
-0.237817
-0.230927
-0.223654
-0.215948
-0.207774
-0.199115
-0.189979
-0.180394
-0.170398
-0.160032
-0.149337
-0.138349
-0.127104
-0.115632
-0.103961
-0.0921168
-0.0801241
-0.068005
-0.0557808
-0.0434717
-0.0310973
-0.0186768
-0.00622866
0.00647096
0.0194043
0.0323115
0.0451751
0.057977
0.0706986
0.0833209
0.0958236
0.108185
0.120383
0.132391
0.144183
0.155727
0.166988
0.177926
0.188495
0.198645
0.208328
0.217509
0.226192
0.234432
0.242336
0.250076
0.257927
0.246891
0.218012
0.19258
0.169501
0.146819
0.125087
0.104686
0.0856841
0.0681172
0.0520175
0.0374316
0.0244004
0.0129869
0.0032437
-0.00475499
-0.0113348
-0.0167856
-0.0200682
-0.0217165
-0.0239028
-0.0269077
-0.0249686
-0.018014
-0.0118102
-0.0066624
-0.00215243
0.00215299
0.00666297
0.0118108
0.0180145
0.0249691
0.0269083
0.0239033
0.021717
0.0200687
0.0167861
0.0113353
0.00475543
-0.00324327
-0.0129864
-0.0244
-0.0374312
-0.0520171
-0.0681168
-0.0856837
-0.104685
-0.125087
-0.146819
-0.169501
-0.19258
-0.218011
-0.246891
-0.257927
-0.250076
-0.242336
-0.234431
-0.226192
-0.217509
-0.208328
-0.198645
-0.188495
-0.177926
-0.166988
-0.155727
-0.144183
-0.132391
-0.120383
-0.108185
-0.0958236
-0.0833209
-0.0706986
-0.057977
-0.0451751
-0.0323115
-0.0194043
-0.00647099
0.0067234
0.0201621
0.0335764
0.0469499
0.0602657
0.0735066
0.0866546
0.0996907
0.112595
0.125346
0.137919
0.150289
0.162426
0.174294
0.18585
0.197042
0.207806
0.218067
0.227765
0.236901
0.245564
0.253927
0.262238
0.251325
0.221664
0.19341
0.167191
0.142751
0.119517
0.0975254
0.0769195
0.0577858
0.0401919
0.0242237
0.0099649
-0.00257128
-0.0132838
-0.0221437
-0.0285943
-0.0336202
-0.0390318
-0.0400227
-0.0373178
-0.0381798
-0.0475162
-0.0436436
-0.0262132
-0.0162733
-0.00904657
-0.00291351
0.00291403
0.00904711
0.0162739
0.0262138
0.0436441
0.0475168
0.0381803
0.0373182
0.0400232
0.0390322
0.0336207
0.0285948
0.0221441
0.0132842
0.0025717
-0.0099645
-0.0242233
-0.0401915
-0.0577854
-0.0769191
-0.097525
-0.119517
-0.142751
-0.167191
-0.19341
-0.221663
-0.251324
-0.262238
-0.253927
-0.245564
-0.236901
-0.227765
-0.218067
-0.207806
-0.197042
-0.18585
-0.174294
-0.162426
-0.150289
-0.137919
-0.125346
-0.112595
-0.0996907
-0.0866546
-0.0735066
-0.0602658
-0.0469499
-0.0335763
-0.0201621
-0.0067234
0.00698527
0.0209483
0.0348888
0.0487917
0.0626413
0.0764217
0.0901163
0.103708
0.117178
0.130507
0.143674
0.156653
0.169418
0.181935
0.194162
0.206042
0.217491
0.22839
0.238605
0.248102
0.257013
0.265584
0.254614
0.224461
0.195043
0.166792
0.140043
0.114817
0.0909979
0.0686027
0.0477079
0.0283751
0.0106688
-0.00525121
-0.0191964
-0.0313387
-0.0413796
-0.0499137
-0.0538325
-0.0554957
-0.065675
-0.0636516
-0.0493327
-0.0439647
-0.0422959
-0.0368409
-0.0269116
-0.0180164
-0.0103331
-0.00336773
0.00336824
0.0103337
0.0180169
0.0269121
0.0368414
0.0422964
0.0439652
0.0493333
0.0636521
0.0656755
0.0554961
0.053833
0.0499141
0.04138
0.0313392
0.0191968
0.00525163
-0.0106684
-0.0283747
-0.0477074
-0.0686023
-0.0909975
-0.114817
-0.140042
-0.166792
-0.195043
-0.22446
-0.254613
-0.265584
-0.257013
-0.248101
-0.238604
-0.22839
-0.217491
-0.206042
-0.194162
-0.181935
-0.169418
-0.156653
-0.143674
-0.130507
-0.117178
-0.103708
-0.0901164
-0.0764216
-0.0626413
-0.0487917
-0.0348888
-0.0209483
-0.00698526
0.00725593
0.021761
0.0362455
0.0506956
0.0650972
0.0794358
0.0936966
0.107864
0.121921
0.135852
0.149636
0.163253
0.17668
0.189888
0.202843
0.215493
0.227747
0.239414
0.250177
0.259901
0.268812
0.257769
0.22716
0.196873
0.167272
0.138692
0.111392
0.0855009
0.0610794
0.0382063
0.0169619
-0.00263339
-0.0206114
-0.0366714
-0.0501306
-0.0621783
-0.070953
-0.0822702
-0.0812992
-0.0688291
-0.0654752
-0.060532
-0.0523777
-0.0460338
-0.0408467
-0.0344998
-0.0265664
-0.0185412
-0.010898
-0.00359128
0.0035918
0.0108986
0.0185417
0.0265668
0.0345003
0.0408472
0.0460343
0.0523782
0.0605325
0.0654757
0.0688296
0.0812996
0.0822706
0.0709534
0.0621787
0.050131
0.0366718
0.0206118
0.00263382
-0.0169615
-0.0382058
-0.061079
-0.0855005
-0.111391
-0.138691
-0.167271
-0.196873
-0.22716
-0.257769
-0.268812
-0.259901
-0.250177
-0.239414
-0.227747
-0.215493
-0.202843
-0.189888
-0.17668
-0.163253
-0.149636
-0.135852
-0.121921
-0.107864
-0.0936966
-0.0794358
-0.0650973
-0.0506956
-0.0362454
-0.021761
-0.00725595
0.00753465
0.0225979
0.0376426
0.0526564
0.0676267
0.0825405
0.0973847
0.112146
0.126809
0.141361
0.155784
0.170064
0.18418
0.198113
0.211846
0.225358
0.238605
0.251356
0.2628
0.272522
0.261551
0.230506
0.199396
0.168614
0.138496
0.109331
0.0813536
0.0547403
0.0296391
0.00620901
-0.0154039
-0.035229
-0.0537788
-0.0706612
-0.0824446
-0.0962591
-0.0979527
-0.0878633
-0.0812155
-0.0730213
-0.0668417
-0.0606029
-0.0535947
-0.0469309
-0.0405444
-0.0337345
-0.0263047
-0.0186782
-0.0111232
-0.0036901
0.0036906
0.0111237
0.0186787
0.0263052
0.033735
0.0405449
0.0469314
0.0535952
0.0606034
0.0668422
0.0730218
0.0812159
0.0878637
0.0979531
0.0962595
0.0824451
0.0706616
0.0537792
0.0352294
0.0154044
-0.00620858
-0.0296386
-0.0547399
-0.0813532
-0.109331
-0.138496
-0.168614
-0.199395
-0.230506
-0.26155
-0.272522
-0.2628
-0.251356
-0.238605
-0.225358
-0.211846
-0.198113
-0.18418
-0.170064
-0.155784
-0.141361
-0.126809
-0.112146
-0.0973847
-0.0825405
-0.0676267
-0.0526564
-0.0376425
-0.0225978
-0.00753468
0.00782069
0.0234566
0.0390763
0.0546686
0.0702225
0.0857266
0.101169
0.116539
0.131825
0.147014
0.162095
0.177054
0.191879
0.206556
0.221083
0.235502
0.24997
0.264613
0.277152
0.266818
0.235346
0.203318
0.171314
0.139707
0.108787
0.0788038
0.0499756
0.0224936
-0.00344449
-0.0275759
-0.0495268
-0.0690682
-0.0885805
-0.109716
-0.112694
-0.103406
-0.0976825
-0.0899859
-0.0826521
-0.0751763
-0.0682469
-0.0614253
-0.0544519
-0.0475373
-0.0406542
-0.03358
-0.0262327
-0.0187388
-0.0112233
-0.00373552
0.003736
0.0112238
0.0187393
0.0262332
0.0335805
0.0406547
0.0475378
0.0544524
0.0614258
0.0682474
0.0751768
0.0826526
0.0899864
0.0976829
0.103407
0.112695
0.109716
0.088581
0.0690686
0.0495272
0.0275763
0.00344494
-0.0224932
-0.0499751
-0.0788034
-0.108786
-0.139706
-0.171314
-0.203317
-0.235346
-0.266817
-0.277152
-0.264613
-0.24997
-0.235502
-0.221083
-0.206556
-0.191879
-0.177054
-0.162095
-0.147014
-0.131825
-0.116539
-0.101169
-0.0857266
-0.0702225
-0.0546686
-0.0390763
-0.0234566
-0.0078207
0.00811323
0.024335
0.0405426
0.0567266
0.0728773
0.0889847
0.105039
0.121031
0.136951
0.15279
0.168541
0.184195
0.199741
0.215163
0.230439
0.245608
0.261166
0.279978
0.275358
0.243231
0.209703
0.176114
0.142849
0.110129
0.07816
0.0471448
0.0172766
-0.0112693
-0.0383052
-0.0635101
-0.0860265
-0.102902
-0.121724
-0.127871
-0.116154
-0.106958
-0.0993564
-0.0917201
-0.0842079
-0.0767646
-0.0695267
-0.062384
-0.0552369
-0.0481006
-0.0409455
-0.0336907
-0.0263012
-0.0188168
-0.0112933
-0.00376381
0.00376427
0.0112938
0.0188172
0.0263016
0.0336912
0.040946
0.0481011
0.0552373
0.0623845
0.0695271
0.0767651
0.0842083
0.0917205
0.0993568
0.106958
0.116154
0.127872
0.121724
0.102903
0.086027
0.0635105
0.0383057
0.0112698
-0.0172762
-0.0471444
-0.0781596
-0.110129
-0.142848
-0.176114
-0.209702
-0.243231
-0.275358
-0.279978
-0.261166
-0.245608
-0.230439
-0.215163
-0.199741
-0.184195
-0.168541
-0.15279
-0.136951
-0.121031
-0.105039
-0.0889847
-0.0728773
-0.0567266
-0.0405426
-0.024335
-0.00811323
0.00841145
0.0252304
0.0420375
0.0588246
0.0755835
0.0923057
0.108983
0.125607
0.14217
0.158668
0.175096
0.191455
0.207739
0.223925
0.239911
0.255328
0.269109
0.279753
0.262048
0.221047
0.184126
0.148599
0.113853
0.079819
0.0466006
0.0143633
-0.016718
-0.046513
-0.0749657
-0.102099
-0.128132
-0.134755
-0.128484
-0.124834
-0.117061
-0.108885
-0.10104
-0.0933076
-0.0856746
-0.07813
-0.0706956
-0.0633339
-0.0559993
-0.0486729
-0.0413284
-0.0339296
-0.0264594
-0.0189302
-0.0113671
-0.00378997
0.00379042
0.0113675
0.0189307
0.0264598
0.0339301
0.0413289
0.0486734
0.0559998
0.0633344
0.0706961
0.0781304
0.0856751
0.093308
0.10104
0.108886
0.117061
0.124834
0.128485
0.134756
0.128132
0.1021
0.0749661
0.0465134
0.0167184
-0.0143629
-0.0466002
-0.0798186
-0.113852
-0.148599
-0.184126
-0.221047
-0.262048
-0.279753
-0.269109
-0.255328
-0.239911
-0.223925
-0.207739
-0.191455
-0.175096
-0.158668
-0.14217
-0.125607
-0.108983
-0.0923057
-0.0755836
-0.0588247
-0.0420375
-0.0252304
-0.00841146
0.00871453
0.0261404
0.0435568
0.060957
0.078334
0.0956806
0.112989
0.130253
0.147467
0.164626
0.181733
0.198798
0.215842
0.232894
0.249954
0.266687
0.280187
0.268851
0.233011
0.194785
0.157165
0.120315
0.0841597
0.0487131
0.014083
-0.0195487
-0.0519703
-0.0830678
-0.112912
-0.141753
-0.150587
-0.140445
-0.13259
-0.125889
-0.118341
-0.110459
-0.102588
-0.0947762
-0.0870361
-0.0793699
-0.071779
-0.0642452
-0.0567439
-0.0492552
-0.0417588
-0.0342346
-0.0266722
-0.0190747
-0.0114531
-0.0038188
0.00381925
0.0114536
0.0190752
0.0266727
0.0342351
0.0417593
0.0492557
0.0567444
0.0642457
0.0717795
0.0793704
0.0870365
0.0947767
0.102589
0.110459
0.118341
0.125889
0.132591
0.140445
0.150587
0.141753
0.112912
0.0830682
0.0519708
0.0195491
-0.0140826
-0.0487127
-0.0841594
-0.120314
-0.157165
-0.194785
-0.233011
-0.268851
-0.280187
-0.266687
-0.249954
-0.232894
-0.215842
-0.198798
-0.181733
-0.164626
-0.147467
-0.130253
-0.112989
-0.0956806
-0.0783341
-0.060957
-0.0435568
-0.0261405
-0.00871456
0.00902161
0.0270625
0.0450963
0.0631179
0.0811216
0.099101
0.117049
0.13496
0.152826
0.170645
0.18842
0.20617
0.223942
0.241858
0.260326
0.281275
0.277073
0.243428
0.206358
0.167922
0.129442
0.0913487
0.0537756
0.0168117
-0.019409
-0.0546433
-0.0885164
-0.120843
-0.151824
-0.162354
-0.15296
-0.143812
-0.135513
-0.127763
-0.119932
-0.111999
-0.104059
-0.0961564
-0.088309
-0.0805222
-0.0727943
-0.0651147
-0.0574681
-0.0498387
-0.0422115
-0.0345735
-0.0269169
-0.0192411
-0.0115504
-0.00385095
0.00385137
0.0115509
0.0192415
0.0269173
0.0345739
0.042212
0.0498392
0.0574685
0.0651153
0.0727948
0.0805226
0.0883094
0.0961569
0.104059
0.111999
0.119932
0.127763
0.135514
0.143813
0.152961
0.162354
0.151825
0.120843
0.0885169
0.0546437
0.0194094
-0.0168113
-0.0537753
-0.0913484
-0.129442
-0.167922
-0.206358
-0.243427
-0.277073
-0.281275
-0.260326
-0.241858
-0.223942
-0.20617
-0.18842
-0.170645
-0.152826
-0.13496
-0.117049
-0.099101
-0.0811216
-0.063118
-0.0450963
-0.0270625
-0.00902163
0.00933174
0.0279938
0.0466516
0.0653015
0.0839392
0.102559
0.121155
0.139718
0.158239
0.176713
0.195138
0.213524
0.2319
0.250268
0.26821
0.281984
0.264373
0.221423
0.181073
0.141109
0.101344
0.0618768
0.0228009
-0.0158108
-0.0538614
-0.0910699
-0.126577
-0.159926
-0.172129
-0.163819
-0.155054
-0.1463
-0.13786
-0.129694
-0.121603
-0.113527
-0.105477
-0.0974676
-0.0895094
-0.0816052
-0.0737526
-0.0659441
-0.0581687
-0.0504148
-0.042671