/*--------------------------------*- C++ -*----------------------------------*\
  =========                 |
  \\      /  F ield         | OpenFOAM: The Open Source CFD Toolbox
   \\    /   O peration     | Website:  https://openfoam.org
    \\  /    A nd           | Version:  7
     \\/     M anipulation  |
\*---------------------------------------------------------------------------*/
FoamFile
{
    version     2.0;
    format      ascii;
    class       volScalarField;
    location    "0.021";
    object      gradTy;
}
// * * * * * * * * * * * * * * * * * * * * * * * * * * * * * * * * * * * * * //

dimensions      [0 -1 0 1 0 0 0];

internalField   nonuniform List<scalar> 
10000
(
0.00171822
0.00172644
0.00174327
0.00176858
0.00180232
0.00184451
0.00189522
0.00195451
0.0020224
0.00209892
0.00218411
0.00227797
0.0023805
0.00249172
0.00261154
0.00273991
0.00287674
0.00302189
0.00317511
0.00333622
0.00350488
0.00368083
0.00386363
0.00405287
0.00424809
0.00444881
0.0046545
0.00486459
0.00507847
0.00529548
0.00551489
0.00573581
0.00595719
0.00617788
0.00639642
0.00661131
0.00682092
0.00702357
0.00721778
0.00740226
0.00757594
0.00773791
0.0078872
0.0080225
0.00814204
0.00824384
0.00832624
0.00838826
0.00842952
0.00845011
0.0084501
0.00842952
0.00838826
0.00832626
0.00824384
0.00814204
0.00802251
0.00788721
0.00773791
0.00757593
0.00740227
0.0072178
0.00702359
0.00682091
0.00661131
0.00639643
0.00617787
0.00595719
0.00573579
0.0055149
0.0052955
0.00507848
0.00486459
0.00465451
0.00444882
0.00424809
0.00405284
0.00386362
0.00368082
0.00350491
0.00333622
0.00317511
0.0030219
0.00287677
0.00273994
0.00261155
0.00249172
0.00238048
0.00227794
0.00218412
0.00209892
0.0020224
0.00195453
0.00189524
0.00184454
0.00180233
0.00176859
0.00174329
0.00172641
0.00171807
0.00515085
0.00517591
0.0052263
0.00530212
0.00540332
0.00552995
0.00568215
0.00586008
0.00606383
0.00629354
0.00654923
0.006831
0.00713887
0.00747279
0.0078326
0.00821813
0.00862903
0.00906489
0.00952514
0.010009
0.0105157
0.0110442
0.0115934
0.012162
0.0127486
0.0133517
0.0139697
0.014601
0.0152438
0.015896
0.0165555
0.0172197
0.0178855
0.0185493
0.019207
0.0198537
0.0204845
0.0210944
0.0216787
0.0222336
0.0227558
0.023243
0.0236925
0.0241004
0.0244612
0.0247684
0.0250168
0.0252033
0.0253272
0.0253888
0.0253888
0.0253272
0.0252033
0.0250169
0.0247685
0.0244612
0.0241004
0.0236925
0.023243
0.0227558
0.0222336
0.0216787
0.0210944
0.0204845
0.0198537
0.019207
0.0185494
0.0178855
0.0172197
0.0165555
0.015896
0.0152438
0.014601
0.0139697
0.0133517
0.0127486
0.012162
0.0115934
0.0110442
0.0105157
0.010009
0.00952511
0.00906489
0.00862905
0.00821815
0.00783262
0.00747276
0.00713884
0.00683095
0.00654922
0.00629352
0.00606382
0.00586009
0.00568218
0.00552996
0.00540336
0.00530221
0.00522641
0.00517579
0.00515056
0.00857191
0.00861402
0.00869812
0.00882447
0.00899319
0.00920442
0.00945836
0.00975514
0.0100951
0.0104783
0.010905
0.0113753
0.0118892
0.0124467
0.0130475
0.0136912
0.0143775
0.0151056
0.0158745
0.016683
0.0175298
0.0184131
0.019331
0.0202815
0.0212621
0.0222704
0.0233037
0.0243592
0.025434
0.026525
0.0276284
0.0287402
0.0298554
0.0309679
0.0320706
0.0331554
0.0342136
0.0352365
0.0362161
0.0371454
0.0380196
0.0388355
0.03959
0.0402769
0.040886
0.0414046
0.0418225
0.0421346
0.0423408
0.0424429
0.042443
0.0423408
0.0421346
0.0418225
0.0414046
0.040886
0.0402769
0.03959
0.0388355
0.0380196
0.0371454
0.0362161
0.0352365
0.0342136
0.0331554
0.0320706
0.0309679
0.0298554
0.0287403
0.0276284
0.0265249
0.025434
0.0243592
0.0233036
0.0222703
0.0212621
0.0202815
0.019331
0.0184131
0.0175297
0.016683
0.0158744
0.0151055
0.0143775
0.0136912
0.0130474
0.0124466
0.0118892
0.0113753
0.010905
0.0104783
0.0100951
0.00975511
0.00945829
0.00920436
0.00899315
0.0088245
0.00869818
0.00861394
0.00857174
0.0119738
0.0120328
0.0121508
0.0123279
0.0125644
0.0128605
0.0132164
0.0136326
0.0141093
0.0146467
0.0152452
0.015905
0.016626
0.0174083
0.0182517
0.0191556
0.0201194
0.0211421
0.0222224
0.0233587
0.0245489
0.0257908
0.0270815
0.028418
0.0297971
0.0312152
0.0326686
0.0341534
0.0356656
0.037201
0.0387548
0.0403214
0.041894
0.0434644
0.0450224
0.046556
0.0480524
0.0494984
0.0508818
0.0521923
0.0534233
0.0545728
0.0556396
0.0566172
0.0574884
0.0582295
0.0588227
0.0592613
0.0595481
0.0596893
0.0596893
0.0595482
0.0592613
0.0588227
0.0582295
0.0574884
0.0566172
0.0556396
0.0545728
0.0534234
0.0521923
0.0508818
0.0494984
0.0480524
0.046556
0.0450224
0.0434644
0.041894
0.0403213
0.0387547
0.037201
0.0356656
0.0341534
0.0326685
0.0312152
0.0297971
0.028418
0.0270814
0.0257907
0.0245489
0.0233586
0.0222224
0.0211421
0.0201193
0.0191556
0.0182516
0.0174083
0.016626
0.0159049
0.0152452
0.0146467
0.0141092
0.0136325
0.0132164
0.0128604
0.0125643
0.0123278
0.0121508
0.0120328
0.0119738
0.0153489
0.0154249
0.0155767
0.0158048
0.0161093
0.0164906
0.016949
0.0174851
0.0180992
0.0187918
0.0195632
0.0204137
0.0213436
0.0223526
0.0234407
0.0246073
0.0258516
0.0271724
0.028568
0.0300363
0.0315748
0.0331804
0.0348495
0.0365782
0.038362
0.0401964
0.0420766
0.0439977
0.0459545
0.0479421
0.0499547
0.0519859
0.0540275
0.056069
0.058097
0.0600954
0.062046
0.06393
0.0657301
0.0674309
0.0690232
0.0705092
0.0718972
0.0731844
0.0743429
0.075326
0.076102
0.0766654
0.0770272
0.077203
0.077203
0.0770272
0.0766654
0.076102
0.075326
0.0743429
0.0731844
0.0718972
0.0705093
0.0690232
0.0674309
0.0657301
0.06393
0.062046
0.0600955
0.0580971
0.056069
0.0540275
0.0519859
0.0499547
0.0479421
0.0459545
0.0439976
0.0420766
0.0401964
0.038362
0.0365781
0.0348494
0.0331803
0.0315747
0.0300362
0.0285679
0.0271723
0.0258516
0.0246073
0.0234407
0.0223526
0.0213435
0.0204137
0.0195631
0.0187917
0.0180992
0.0174851
0.016949
0.0164906
0.0161093
0.0158047
0.0155767
0.0154248
0.0153489
0.0186892
0.0187822
0.0189681
0.0192473
0.0196201
0.020087
0.0206485
0.0213052
0.0220576
0.0229064
0.0238521
0.024895
0.0260356
0.0272738
0.0286094
0.030042
0.0315705
0.0331937
0.0349095
0.0367154
0.0386084
0.0405845
0.0426394
0.044768
0.0469648
0.049224
0.0515396
0.0539057
0.0563162
0.0587654
0.0612473
0.0637551
0.06628
0.0688099
0.0713282
0.0738133
0.0762404
0.0785835
0.0808189
0.0829226
0.0848768
0.0866942
0.0884085
0.0900357
0.0915304
0.0927886
0.0937549
0.0944326
0.0948547
0.0950554
0.0950554
0.0948546
0.0944327
0.0937549
0.0927887
0.0915304
0.0900357
0.0884085
0.0866942
0.0848768
0.0829226
0.080819
0.0785835
0.0762404
0.0738133
0.0713282
0.06881
0.0662801
0.0637551
0.0612473
0.0587653
0.0563161
0.0539057
0.0515396
0.049224
0.0469648
0.0447679
0.0426394
0.0405845
0.0386083
0.0367154
0.0349095
0.0331936
0.0315705
0.0300419
0.0286094
0.0272738
0.0260356
0.024895
0.023852
0.0229064
0.0220576
0.0213051
0.0206485
0.020087
0.0196201
0.0192472
0.018968
0.0187821
0.0186892
0.0219865
0.0220965
0.0223167
0.0226473
0.0230888
0.0236418
0.024307
0.0250851
0.0259768
0.0269831
0.0281046
0.0293419
0.0306954
0.0321655
0.033752
0.0354544
0.0372718
0.0392026
0.0412447
0.0433951
0.0456502
0.0480053
0.050455
0.0529933
0.0556133
0.0583077
0.0610694
0.0638909
0.0667655
0.0696871
0.07265
0.0756481
0.0786733
0.081713
0.0847477
0.0877492
0.0906833
0.0935137
0.0962127
0.0987409
0.101048
0.103166
0.105194
0.10721
0.109148
0.110739
0.111894
0.112654
0.113103
0.113308
0.113308
0.113103
0.112654
0.111894
0.110739
0.109148
0.10721
0.105194
0.103166
0.101048
0.0987409
0.0962128
0.0935137
0.0906833
0.0877492
0.0847477
0.081713
0.0786733
0.0756481
0.07265
0.0696871
0.0667655
0.0638909
0.0610694
0.0583077
0.0556132
0.0529933
0.050455
0.0480052
0.0456502
0.0433951
0.0412447
0.0392026
0.0372717
0.0354544
0.033752
0.0321655
0.0306954
0.0293418
0.0281045
0.026983
0.0259768
0.025085
0.0243069
0.0236417
0.0230887
0.0226472
0.0223166
0.0220964
0.0219865
0.0252325
0.0253597
0.0256142
0.0259965
0.0265071
0.0271467
0.0279162
0.0288165
0.0298488
0.0310139
0.0323129
0.0337467
0.0353159
0.0370211
0.0388621
0.0408389
0.0429503
0.0451949
0.0475704
0.0500734
0.0526996
0.0554439
0.0582995
0.0612593
0.0643148
0.0674573
0.0706776
0.073967
0.0773174
0.0807226
0.0841782
0.0876805
0.0912244
0.0947992
0.0983841
0.101942
0.105425
0.108776
0.111983
0.11499
0.117622
0.119947
0.122214
0.124687
0.127341
0.129358
0.130661
0.131424
0.131831
0.132004
0.132004
0.131831
0.131424
0.130661
0.129358
0.127341
0.124687
0.122214
0.119947
0.117622
0.11499
0.111983
0.108776
0.105425
0.101942
0.0983841
0.0947992
0.0912244
0.0876805
0.0841782
0.0807226
0.0773174
0.0739669
0.0706776
0.0674572
0.0643148
0.0612593
0.0582995
0.0554438
0.0526996
0.0500733
0.0475704
0.0451949
0.0429503
0.0408389
0.0388622
0.037021
0.0353159
0.0337467
0.0323129
0.0310138
0.0298487
0.0288165
0.0279161
0.0271466
0.026507
0.0259964
0.0256141
0.0253596
0.0252325
0.0284187
0.0285631
0.0288522
0.0292863
0.0298663
0.030593
0.0314675
0.0324911
0.0336649
0.0349904
0.0364688
0.0381014
0.0398891
0.0418327
0.0439326
0.0461886
0.0486001
0.0511654
0.0538823
0.0567471
0.0597553
0.0629005
0.0661753
0.0695707
0.0730767
0.0766823
0.0803764
0.0841479
0.0879869
0.0918869
0.0958454
0.0998636
0.103944
0.108081
0.11226
0.11643
0.120524
0.124413
0.128191
0.131859
0.134751
0.137038
0.139286
0.142246
0.146436
0.148962
0.15024
0.150825
0.151066
0.151147
0.151147
0.151066
0.150825
0.15024
0.148962
0.146436
0.142246
0.139286
0.137038
0.134751
0.131859
0.128191
0.124413
0.120524
0.11643
0.11226
0.108081
0.103944
0.0998636
0.0958453
0.0918869
0.0879869
0.0841478
0.0803764
0.0766823
0.0730766
0.0695707
0.0661753
0.0629005
0.0597553
0.0567471
0.0538823
0.0511654
0.0486001
0.0461886
0.0439326
0.0418327
0.0398891
0.0381013
0.0364688
0.0349903
0.0336648
0.032491
0.0314674
0.0305929
0.0298662
0.0292862
0.0288521
0.028563
0.0284186
0.0315362
0.0316979
0.0320216
0.0325079
0.0331576
0.0339719
0.0349521
0.0360996
0.0374162
0.0389035
0.0405633
0.042397
0.0444062
0.046592
0.0489551
0.0514958
0.0542136
0.0571073
0.0601746
0.0634119
0.0668141
0.0703742
0.0740835
0.0779313
0.0819054
0.0859925
0.0901786
0.0944493
0.0987911
0.103196
0.107663
0.112203
0.116831
0.121556
0.126386
0.131242
0.136086
0.140426
0.144779
0.149783
0.152769
0.154455
0.155936
0.158873
0.167499
0.170125
0.170822
0.170883
0.170774
0.170685
0.170685
0.170774
0.170883
0.170822
0.170125
0.167499
0.158873
0.155936
0.154455
0.152769
0.149783
0.144779
0.140426
0.136086
0.131242
0.126386
0.121556
0.116831
0.112203
0.107663
0.103195
0.098791
0.0944493
0.0901786
0.0859925
0.0819054
0.0779313
0.0740835
0.0703742
0.066814
0.0634119
0.0601746
0.0571073
0.0542136
0.0514958
0.0489551
0.046592
0.0444062
0.042397
0.0405632
0.0389035
0.0374161
0.0360996
0.034952
0.0339718
0.0331575
0.0325078
0.0320215
0.0316978
0.0315361
0.0345759
0.034755
0.0351134
0.0356519
0.0363717
0.0372739
0.0383603
0.0396327
0.0410931
0.0427437
0.0445866
0.0466239
0.0488576
0.0512893
0.0539203
0.0567512
0.0597823
0.0630125
0.06644
0.0700613
0.0738712
0.0778621
0.0820239
0.0863438
0.0908072
0.0953977
0.100098
0.10489
0.109751
0.114668
0.119645
0.124697
0.129875
0.135185
0.140757
0.146345
0.152441
0.156722
0.161022
0.170038
0.172404
0.1724
0.171454
0.170138
0.168729
0.167387
0.166214
0.165281
0.164635
0.164305
0.164305
0.164635
0.165281
0.166214
0.167387
0.168729
0.170138
0.171454
0.1724
0.172404
0.170038
0.161022
0.156722
0.152441
0.146345
0.140757
0.135185
0.129875
0.124697
0.119645
0.114668
0.109751
0.10489
0.100098
0.0953977
0.0908071
0.0863438
0.0820239
0.0778621
0.0738712
0.0700613
0.06644
0.0630125
0.0597823
0.0567512
0.0539202
0.0512893
0.0488576
0.0466239
0.0445866
0.0427437
0.0410931
0.0396326
0.0383603
0.0372739
0.0363716
0.0356519
0.0351133
0.0347549
0.0345759
0.0375284
0.0377248
0.038118
0.038709
0.0394989
0.0404893
0.0416824
0.0430802
0.0446854
0.0465005
0.0485283
0.0507715
0.0532326
0.055914
0.0588174
0.0619444
0.0652957
0.0688709
0.0726689
0.0766868
0.0809195
0.0853592
0.0899943
0.0948097
0.099787
0.104907
0.11015
0.115493
0.120897
0.12633
0.13181
0.137337
0.143066
0.148842
0.155412
0.16125
0.170931
0.173327
0.172885
0.171115
0.168588
0.165464
0.161517
0.155668
0.14406
0.138644
0.135528
0.133552
0.132337
0.131752
0.131752
0.132337
0.133552
0.135528
0.138644
0.14406
0.155668
0.161517
0.165464
0.168588
0.171115
0.172885
0.173327
0.170931
0.16125
0.155412
0.148842
0.143066
0.137337
0.13181
0.12633
0.120897
0.115493
0.11015
0.104907
0.099787
0.0948097
0.0899943
0.0853592
0.0809195
0.0766868
0.072669
0.0688709
0.0652957
0.0619445
0.0588175
0.055914
0.0532327
0.0507715
0.0485284
0.0465006
0.0446854
0.0430802
0.0416824
0.0404894
0.0394989
0.038709
0.038118
0.0377248
0.0375284
0.040384
0.0405978
0.0410258
0.0416691
0.0425292
0.043608
0.0449079
0.0464317
0.0481823
0.050163
0.0523772
0.0548284
0.0575197
0.0604543
0.0636348
0.0670635
0.0707418
0.0746706
0.0788496
0.083277
0.0879488
0.0928573
0.0979902
0.103329
0.108849
0.114527
0.120348
0.12629
0.132279
0.138222
0.144214
0.150068
0.156517
0.162021
0.171128
0.17265
0.170885
0.166951
0.160256
0.147125
0.139537
0.133511
0.127636
0.121096
0.113498
0.107886
0.103982
0.101338
0.0996836
0.098884
0.098884
0.0996836
0.101338
0.103982
0.107886
0.113498
0.121096
0.127636
0.133511
0.139537
0.147125
0.160256
0.166951
0.170885
0.17265
0.171128
0.162021
0.156517
0.150068
0.144214
0.138222
0.132279
0.126289
0.120348
0.114527
0.108849
0.103329
0.0979902
0.0928573
0.0879488
0.083277
0.0788496
0.0746706
0.0707418
0.0670635
0.0636348
0.0604543
0.0575198
0.0548284
0.0523773
0.050163
0.0481823
0.0464317
0.044908
0.043608
0.0425292
0.0416691
0.0410258
0.0405978
0.0403841
0.0431329
0.0433639
0.0438266
0.0445221
0.0454523
0.0466193
0.0480261
0.0496758
0.0515723
0.0537194
0.0561212
0.058782
0.061706
0.0648971
0.0683589
0.0720946
0.0761066
0.0803971
0.0849671
0.0898169
0.0949445
0.100344
0.106003
0.111899
0.117996
0.124261
0.130689
0.137315
0.143996
0.150363
0.157065
0.162525
0.171247
0.171937
0.16861
0.161517
0.147186
0.137504
0.128214
0.117896
0.109216
0.101685
0.094684
0.0878331
0.0811848
0.0756432
0.0713909
0.0683424
0.0663805
0.0654205
0.0654205
0.0663805
0.0683424
0.0713909
0.0756432
0.0811848
0.0878331
0.0946839
0.101685
0.109216
0.117896
0.128214
0.137504
0.147186
0.161517
0.16861
0.171937
0.171246
0.162524
0.157065
0.150363
0.143996
0.137315
0.130689
0.124261
0.117996
0.111899
0.106003
0.100344
0.0949445
0.0898169
0.0849671
0.0803971
0.0761067
0.0720946
0.068359
0.0648971
0.0617061
0.0587821
0.0561212
0.0537194
0.0515723
0.0496759
0.0480261
0.0466193
0.0454523
0.0445221
0.0438266
0.0433639
0.0431329
0.0457647
0.0460129
0.04651
0.0472574
0.0482572
0.0495121
0.0510254
0.052801
0.0548433
0.0571569
0.0597471
0.0626189
0.0657775
0.069228
0.072975
0.0770226
0.0813745
0.0860339
0.0910039
0.0962874
0.101887
0.107801
0.11402
0.120518
0.127238
0.134106
0.141119
0.148585
0.156338
0.162491
0.171496
0.172063
0.168188
0.160053
0.14403
0.13178
0.119144
0.107954
0.0974692
0.0872768
0.0779726
0.0695409
0.0617783
0.0545495
0.0479329
0.0422674
0.0377431
0.0344013
0.0322123
0.0311317
0.0311318
0.0322122
0.0344013
0.0377431
0.0422674
0.0479329
0.0545495
0.0617782
0.0695409
0.0779726
0.0872768
0.0974691
0.107954
0.119144
0.13178
0.14403
0.160053
0.168188
0.172063
0.171496
0.162491
0.156338
0.148584
0.141119
0.134105
0.127238
0.120518
0.11402
0.107801
0.101887
0.0962874
0.0910039
0.0860339
0.0813745
0.0770226
0.072975
0.0692281
0.0657776
0.062619
0.0597472
0.057157
0.0548433
0.0528011
0.0510255
0.0495122
0.0482573
0.0472575
0.0465101
0.0460129
0.0457647
0.048269
0.0485342
0.0490654
0.0498642
0.0509331
0.0522751
0.0538942
0.0557949
0.0579824
0.0604624
0.0632409
0.0663244
0.0697191
0.0734314
0.0774669
0.0818308
0.0865279
0.0915624
0.0969392
0.102665
0.108747
0.115196
0.122016
0.129184
0.136615
0.144099
0.151405
0.159888
0.170616
0.172113
0.168549
0.160227
0.143564
0.130213
0.11598
0.102707
0.0899087
0.0779243
0.0666362
0.055952
0.0460199
0.0368728
0.0284672
0.0207671
0.0138291
0.00783749
0.00299025
-0.00062205
-0.00299891
-0.00417407
-0.00417408
-0.00299893
-0.000622061
0.00299023
0.00783745
0.013829
0.0207671
0.0284671
0.0368728
0.0460199
0.0559519
0.0666361
0.0779242
0.0899087
0.102707
0.11598
0.130213
0.143564
0.160227
0.168549
0.172113
0.170616
0.159888
0.151404
0.144099
0.136615
0.129184
0.122015
0.115196
0.108747
0.102665
0.0969392
0.0915624
0.0865279
0.0818309
0.0774669
0.0734314
0.0697192
0.0663244
0.063241
0.0604624
0.0579825
0.055795
0.0538943
0.0522752
0.0509332
0.0498643
0.0490654
0.0485342
0.048269
0.0506351
0.0509171
0.0514819
0.0523314
0.0534684
0.0548965
0.0566201
0.0586446
0.0609762
0.0636215
0.0665877
0.0698827
0.0735142
0.0774899
0.0818168
0.0865011
0.0915484
0.0969631
0.102751
0.108921
0.115489
0.122482
0.129935
0.137874
0.14624
0.154584
0.16084
0.16929
0.16831
0.160981
0.144536
0.13089
0.115933
0.101531
0.0872141
0.0733755
0.0600499
0.0473633
0.0353399
0.0239932
0.0133791
0.00354052
-0.00549007
-0.0137344
-0.021193
-0.0277213
-0.0329923
-0.0368834
-0.0394193
-0.0406651
-0.0406651
-0.0394193
-0.0368834
-0.0329923
-0.0277213
-0.021193
-0.0137344
-0.00549013
0.00354045
0.0133791
0.0239931
0.0353399
0.0473632
0.0600499
0.0733754
0.0872141
0.101531
0.115933
0.13089
0.144536
0.160981
0.16831
0.16929
0.16084
0.154584
0.14624
0.137874
0.129935
0.122482
0.115489
0.108921
0.102751
0.0969631
0.0915484
0.0865012
0.0818168
0.0774899
0.0735143
0.0698828
0.0665878
0.0636215
0.0609763
0.0586447
0.0566202
0.0548966
0.0534685
0.0523315
0.051482
0.0509172
0.0506352
0.0528524
0.0531508
0.0537485
0.0546477
0.0558515
0.0573641
0.0591905
0.061337
0.0638105
0.0666192
0.0697716
0.0732769
0.0771449
0.0813847
0.0860054
0.0910141
0.0964167
0.102217
0.108418
0.115028
0.122067
0.129582
0.137657
0.146441
0.156207
0.167493
0.168428
0.162304
0.146531
0.133125
0.118033
0.103143
0.0879934
0.0729811
0.0581565
0.0436881
0.0296806
0.0162404
0.00344291
-0.0086468
-0.0200082
-0.0305919
-0.0402449
-0.0490504
-0.0571901
-0.0645958
-0.0704245
-0.0745778
-0.0772131
-0.0784881
-0.0784881
-0.0772132
-0.0745779
-0.0704245
-0.0645958
-0.0571902
-0.0490504
-0.040245
-0.0305919
-0.0200083
-0.00864684
0.00344287
0.0162403
0.0296806
0.043688
0.0581564
0.072981
0.0879933
0.103143
0.118032
0.133125
0.146531
0.162304
0.168428
0.167493
0.156207
0.146441
0.137657
0.129582
0.122067
0.115028
0.108418
0.102217
0.0964167
0.0910142
0.0860054
0.0813848
0.0771449
0.073277
0.0697716
0.0666193
0.0638106
0.0613371
0.0591906
0.0573642
0.0558516
0.0546478
0.0537486
0.0531509
0.0528525
0.0549099
0.0552242
0.0558541
0.0568017
0.0580706
0.0596656
0.0615924
0.0638581
0.0664708
0.0694399
0.0727755
0.0764887
0.0805913
0.0850951
0.0900112
0.0953486
0.101113
0.107306
0.113924
0.120966
0.128446
0.136412
0.144973
0.154347
0.164995
0.164931
0.157256
0.139135
0.122697
0.107242
0.0915789
0.0758777
0.0601057
0.0444008
0.0288685
0.0136347
-0.00119053
-0.0154886
-0.0291525
-0.0420315
-0.0542139
-0.0657181
-0.0759311
-0.0851346
-0.0940411
-0.103183
-0.10968
-0.113947
-0.116529
-0.117751
-0.117751
-0.116529
-0.113947
-0.10968
-0.103183
-0.0940411
-0.0851347
-0.0759311
-0.0657182
-0.054214
-0.0420316
-0.0291526
-0.0154886
-0.00119062
0.0136347
0.0288685
0.0444008
0.0601056
0.0758776
0.0915788
0.107242
0.122697
0.139135
0.157256
0.164931
0.164995
0.154347
0.144973
0.136412
0.128446
0.120966
0.113924
0.107306
0.101113
0.0953487
0.0900112
0.0850952
0.0805914
0.0764888
0.0727755
0.06944
0.0664709
0.0638582
0.0615925
0.0596657
0.0580707
0.0568018
0.0558542
0.0552244
0.0549101
0.0567968
0.0571265
0.0577874
0.0587819
0.0601139
0.0617887
0.0638128
0.0661942
0.0689421
0.0720672
0.0755815
0.0794984
0.0838321
0.0885976
0.0938095
0.0994803
0.105617
0.112218
0.119267
0.12674
0.134626
0.142951
0.151795
0.161313
0.15867
0.144154
0.130688
0.114581
0.0981449
0.0817984
0.0653619
0.0488483
0.0322823
0.0157461
-0.00065284
-0.0167946
-0.032588
-0.0478812
-0.0625915
-0.076199
-0.0892097
-0.102272
-0.112785
-0.121694
-0.130853
-0.14463
-0.151394
-0.155238
-0.15745
-0.158481
-0.158481
-0.15745
-0.155238
-0.151394
-0.14463
-0.130853
-0.121694
-0.112785
-0.102272
-0.0892097
-0.076199
-0.0625915
-0.0478812
-0.0325881
-0.0167947
-0.000652914
0.015746
0.0322823
0.0488482
0.0653618
0.0817983
0.0981448
0.114581
0.130688
0.144154
0.15867
0.161313
0.151794
0.142951
0.134626
0.12674
0.119267
0.112218
0.105617
0.0994804
0.0938095
0.0885977
0.0838322
0.0794984
0.0755816
0.0720672
0.0689422
0.0661943
0.0638129
0.0617887
0.060114
0.0587819
0.0577875
0.0571266
0.0567969
0.058502
0.0588466
0.0595372
0.0605767
0.0619693
0.0637208
0.0658384
0.068331
0.0712089
0.0744843
0.0781712
0.0822851
0.0868435
0.0918655
0.0973709
0.103379
0.109903
0.11694
0.124457
0.132386
0.140668
0.149286
0.158272
0.154612
0.138379
0.122639
0.107045
0.0906039
0.0737172
0.0566242
0.0393662
0.0219803
0.00450289
-0.0130076
-0.030428
-0.0476032
-0.0645504
-0.0809536
-0.0972615
-0.11112
-0.124339
-0.141588
-0.151477
-0.158255
-0.163321
-0.16721
-0.170163
-0.172305
-0.173702
-0.174392
-0.174392
-0.173702
-0.172305
-0.170163
-0.16721
-0.163321
-0.158256
-0.151477
-0.141588
-0.124339
-0.11112
-0.0972615
-0.0809537
-0.0645505
-0.0476032
-0.0304281
-0.0130077
0.00450283
0.0219802
0.0393661
0.0566241
0.0737172
0.0906039
0.107045
0.122639
0.138379
0.154612
0.158272
0.149286
0.140668
0.132386
0.124457
0.11694
0.109903
0.103379
0.097371
0.0918656
0.0868436
0.0822852
0.0781713
0.0744844
0.071209
0.0683311
0.0658385
0.0637209
0.0619694
0.0605768
0.0595374
0.0588467
0.0585021
0.060015
0.0603737
0.0610927
0.062175
0.0636253
0.0654497
0.0676563
0.0702546
0.0732562
0.0766746
0.0805256
0.0848273
0.0896004
0.0948687
0.100659
0.107002
0.113928
0.121448
0.129517
0.137975
0.146685
0.155579
0.15156
0.134638
0.117894
0.101247
0.0844814
0.0672722
0.0496592
0.0317416
0.0135885
-0.00474338
-0.0232278
-0.0418728
-0.060507
-0.0787348
-0.0971879
-0.114287
-0.134581
-0.146912
-0.155694
-0.162377
-0.167413
-0.17068
-0.171125
-0.164894
-0.16392
-0.164296
-0.164843
-0.165178
-0.165178
-0.164843
-0.164296
-0.16392
-0.164894
-0.171125
-0.17068
-0.167413
-0.162377
-0.155694
-0.146912
-0.134581
-0.114287
-0.097188
-0.0787349
-0.0605071
-0.0418729
-0.0232278
-0.00474345
0.0135884
0.0317416
0.0496591
0.0672721
0.0844814
0.101247
0.117894
0.134638
0.15156
0.155579
0.146685
0.137975
0.129517
0.121448
0.113928
0.107002
0.100659
0.0948688
0.0896005
0.0848274
0.0805257
0.0766747
0.0732563
0.0702547
0.0676564
0.0654498
0.0636254
0.0621751
0.0610928
0.0603738
0.0600151
0.0613251
0.0616971
0.0624429
0.0635656
0.0650702
0.0669633
0.0692536
0.0719514
0.0750691
0.0786215
0.0826262
0.0871033
0.0920767
0.0975744
0.103631
0.110292
0.117619
0.125684
0.134478
0.143618
0.15284
0.148944
0.131899
0.114782
0.0975685
0.0801969
0.062549
0.0444948
0.0260189
0.00716958
-0.0119744
-0.0313174
-0.0508399
-0.0708309
-0.0911137
-0.109801
-0.131378
-0.144661
-0.153959
-0.160377
-0.163291
-0.15897
-0.159289
-0.160102
-0.159785
-0.157668
-0.156674
-0.156461
-0.156546
-0.156647
-0.156647
-0.156546
-0.156461
-0.156674
-0.157668
-0.159785
-0.160102
-0.159289
-0.15897
-0.163292
-0.160377
-0.153959
-0.144662
-0.131378
-0.109801
-0.0911138
-0.0708309
-0.0508399
-0.0313174
-0.0119744
0.00716954
0.0260189
0.0444948
0.0625489
0.0801969
0.0975684
0.114782
0.131899
0.148944
0.15284
0.143618
0.134478
0.125684
0.117619
0.110292
0.103631
0.0975745
0.0920767
0.0871034
0.0826263
0.0786217
0.0750692
0.0719515
0.0692538
0.0669635
0.0650703
0.0635657
0.062443
0.0616973
0.0613252
0.062422
0.0628065
0.0635772
0.0647376
0.0662929
0.0682501
0.0706183
0.0734083
0.0766335
0.0803097
0.0844555
0.089093
0.0942482
0.0999516
0.106241
0.11317
0.12084
0.129475
0.139391
0.149497
0.146267
0.129603
0.1126
0.0952726
0.077618
0.0596023
0.0411644
0.0222423
0.00281602
-0.0170843
-0.0373554
-0.0577702
-0.0780833
-0.0996392
-0.123501
-0.138202
-0.147951
-0.153139
-0.150355
-0.151498
-0.152286
-0.151255
-0.151007
-0.150991
-0.150584
-0.149654
-0.148981
-0.148664
-0.148566
-0.148553
-0.148553
-0.148566
-0.148664
-0.148981
-0.149654
-0.150584
-0.150991
-0.151007
-0.151255
-0.152286
-0.151498
-0.150356
-0.15314
-0.147951
-0.138202
-0.123501
-0.0996392
-0.0780833
-0.0577702
-0.0373555
-0.0170843
0.00281601
0.0222422
0.0411644
0.0596023
0.0776179
0.0952725
0.1126
0.129603
0.146267
0.149497
0.139391
0.129475
0.12084
0.11317
0.106241
0.0999517
0.0942483
0.0890931
0.0844556
0.0803098
0.0766337
0.0734085
0.0706184
0.0682502
0.066293
0.0647377
0.0635773
0.0628067
0.0624222
0.0632958
0.0636917
0.0644855
0.0656806
0.0672826
0.0692989
0.0717387
0.0746134
0.0779367
0.081725
0.0859979
0.0907789
0.0960953
0.101978
0.108457
0.115565
0.123372
0.132276
0.144424
0.14286
0.127265
0.110887
0.0938734
0.0763027
0.0582031
0.0395661
0.0203611
0.000550413
-0.0198976
-0.0409945
-0.0626631
-0.084438
-0.10424
-0.126344
-0.13912
-0.145658
-0.14321
-0.143727
-0.143139
-0.14329
-0.14342
-0.143076
-0.142815
-0.142592
-0.142228
-0.141704
-0.141253
-0.140967
-0.140822
-0.140767
-0.140767
-0.140822
-0.140967
-0.141253
-0.141704
-0.142228
-0.142592
-0.142815
-0.143076
-0.14342
-0.143291
-0.143139
-0.143727
-0.14321
-0.145658
-0.13912
-0.126344
-0.104241
-0.084438
-0.0626632
-0.0409945
-0.0198976
0.000550381
0.0203611
0.0395661
0.0582031
0.0763027
0.0938733
0.110887
0.127265
0.14286
0.144424
0.132276
0.123372
0.115565
0.108457
0.101978
0.0960953
0.090779
0.085998
0.0817251
0.0779368
0.0746135
0.0717388
0.069299
0.0672828
0.0656807
0.0644856
0.0636919
0.0632959
0.0639367
0.0643431
0.0651578
0.0663847
0.0680293
0.0700993
0.0726041
0.0755554
0.0789669
0.0828552
0.0872402
0.0921464
0.0976036
0.103645
0.110297
0.117526
0.125086
0.132126
0.137307
0.124388
0.109325
0.0930537
0.0759132
0.0580342
0.0394597
0.0201923
0.000216967
-0.020493
-0.0419946
-0.0644099
-0.0879875
-0.113247
-0.128308
-0.136452
-0.135084
-0.136219
-0.135802
-0.13572
-0.135485
-0.135408
-0.135332
-0.135122
-0.13489
-0.134643
-0.134339
-0.133987
-0.133668
-0.133436
-0.133295
-0.133231
-0.133231
-0.133295
-0.133436
-0.133668
-0.133987
-0.134339
-0.134643
-0.13489
-0.135122
-0.135332
-0.135408
-0.135485
-0.135721
-0.135802
-0.136219
-0.135084
-0.136452
-0.128308
-0.113247
-0.0879876
-0.0644099
-0.0419947
-0.0204931
0.000216946
0.0201923
0.0394597
0.0580342
0.0759132
0.0930537
0.109325
0.124388
0.137307
0.132126
0.125086
0.117526
0.110297
0.103645
0.0976037
0.0921464
0.0872402
0.0828552
0.078967
0.0755555
0.0726043
0.0700994
0.0680294
0.0663848
0.065158
0.0643432
0.0639368
0.0643356
0.0647513
0.0655849
0.0668402
0.0685231
0.0706414
0.0732047
0.0762245
0.0797144
0.0836901
0.0881711
0.0931823
0.0987572
0.104944
0.111811
0.119423
0.127601
0.134129
0.122412
0.108333
0.0928387
0.0762977
0.0588639
0.0405956
0.0215039
0.00157991
-0.0191814
-0.0407778
-0.0632565
-0.0867888
-0.111806
-0.126303
-0.133373
-0.130172
-0.128823
-0.128616
-0.128344
-0.128154
-0.127962
-0.127815
-0.127669
-0.127482
-0.127271
-0.127043
-0.126791
-0.126529
-0.126291
-0.126106
-0.125984
-0.125925
-0.125925
-0.125984
-0.126106
-0.126291
-0.126529
-0.126791
-0.127043
-0.127271
-0.127482
-0.12767
-0.127815
-0.127962
-0.128154
-0.128345
-0.128616
-0.128823
-0.130172
-0.133373
-0.126303
-0.111806
-0.0867888
-0.0632566
-0.0407778
-0.0191815
0.0015799
0.0215038
0.0405956
0.0588639
0.0762977
0.0928388
0.108333
0.122412
0.134129
0.127601
0.119423
0.111811
0.104944
0.0987573
0.0931824
0.0881712
0.0836902
0.0797145
0.0762246
0.0732048
0.0706415
0.0685232
0.0668403
0.065585
0.0647514
0.0643357
0.0644836
0.0649076
0.0657576
0.0670379
0.0687547
0.0709158
0.0735312
0.076612
0.080171
0.0842225
0.0887834
0.0938752
0.0995302
0.105807
0.112837
0.121026
0.132049
0.128495
0.110151
0.0939357
0.0776077
0.0606082
0.0427855
0.0240782
0.00443711
-0.0161805
-0.0377745
-0.0602556
-0.0835878
-0.107856
-0.120188
-0.120864
-0.122802
-0.122308
-0.121689
-0.121346
-0.121078
-0.120861
-0.120667
-0.120494
-0.120326
-0.120144
-0.119949
-0.119745
-0.119534
-0.119326
-0.119139
-0.118991
-0.11889
-0.118839
-0.118839
-0.11889
-0.118991
-0.119139
-0.119326
-0.119534
-0.119745
-0.119949
-0.120144
-0.120326
-0.120494
-0.120667
-0.120861
-0.121078
-0.121346
-0.121689
-0.122308
-0.122802
-0.120864
-0.120188
-0.107856
-0.0835879
-0.0602557
-0.0377745
-0.0161806
0.00443709
0.0240782
0.0427855
0.0606082
0.0776077
0.0939357
0.110151
0.128495
0.132049
0.121026
0.112837
0.105807
0.0995303
0.0938753
0.0887835
0.0842226
0.0801711
0.0766121
0.0735313
0.070916
0.0687548
0.0670381
0.0657578
0.0649077
0.0644837
0.0643726
0.0648035
0.0656676
0.0669693
0.0687151
0.0709137
0.0735748
0.0767099
0.0803305
0.0844489
0.0890767
0.0942267
0.0999141
0.106159
0.112962
0.120065
0.125187
0.111755
0.0960074
0.0798624
0.063225
0.0458826
0.0276945
0.00855743
-0.0116321
-0.0329875
-0.0555489
-0.0789984
-0.103149
-0.114894
-0.114289
-0.114409
-0.114916
-0.114826
-0.114533
-0.11426
-0.114019
-0.113806
-0.113612
-0.113432
-0.113258
-0.113081
-0.112901
-0.112719
-0.112538
-0.112367
-0.112216
-0.112095
-0.112011
-0.111969
-0.111969
-0.112011
-0.112095
-0.112216
-0.112367
-0.112538
-0.112719
-0.112901
-0.113081
-0.113258
-0.113432
-0.113612
-0.113806
-0.114019
-0.114261
-0.114533
-0.114826
-0.114916
-0.114409
-0.114289
-0.114894
-0.103149
-0.0789985
-0.055549
-0.0329875
-0.0116321
0.00855738
0.0276944
0.0458826
0.063225
0.0798624
0.0960074
0.111755
0.125187
0.120065
0.112962
0.106159
0.0999141
0.0942268
0.0890768
0.084449
0.0803306
0.07671
0.073575
0.0709138
0.0687153
0.0669694
0.0656677
0.0648036
0.0643727
0.0639948
0.0644312
0.0653066
0.0666257
0.0683957
0.0706259
0.0733268
0.0765103
0.0801877
0.0843687
0.0890598
0.0942622
0.0999727
0.106197
0.113042
0.121355
0.110975
0.0975816
0.0824769
0.0664635
0.0496939
0.0321125
0.0136231
-0.00588091
-0.0265483
-0.0486465
-0.0725412
-0.0971955
-0.109141
-0.108336
-0.107899
-0.107803
-0.107867
-0.107786
-0.1076
-0.107387
-0.107177
-0.106978
-0.106791
-0.106613
-0.106442
-0.106273
-0.106106
-0.105942
-0.105785
-0.10564
-0.105514
-0.105413
-0.105344
-0.105308
-0.105308
-0.105344
-0.105413
-0.105514
-0.10564
-0.105785
-0.105942
-0.106106
-0.106273
-0.106442
-0.106613
-0.106791
-0.106978
-0.107177
-0.107388
-0.1076
-0.107786
-0.107867
-0.107803
-0.107899
-0.108336
-0.109141
-0.0971956
-0.0725413
-0.0486465
-0.0265484
-0.00588095
0.0136231
0.0321124
0.0496939
0.0664635
0.0824769
0.0975816
0.110975
0.121355
0.113042
0.106197
0.0999727
0.0942623
0.0890599
0.0843688