/*--------------------------------*- C++ -*----------------------------------*\
  =========                 |
  \\      /  F ield         | OpenFOAM: The Open Source CFD Toolbox
   \\    /   O peration     | Website:  https://openfoam.org
    \\  /    A nd           | Version:  7
     \\/     M anipulation  |
\*---------------------------------------------------------------------------*/
FoamFile
{
    version     2.0;
    format      ascii;
    class       volScalarField;
    location    "0.042";
    object      gradTy;
}
// * * * * * * * * * * * * * * * * * * * * * * * * * * * * * * * * * * * * * //

dimensions      [0 -1 0 1 0 0 0];

internalField   nonuniform List<scalar> 
10000
(
2.38228e-05
2.38122e-05
2.3791e-05
2.37487e-05
2.36852e-05
2.36322e-05
2.35581e-05
2.3484e-05
2.33781e-05
2.32722e-05
2.31664e-05
2.30393e-05
2.28911e-05
2.27428e-05
2.25946e-05
2.24358e-05
2.22452e-05
2.20758e-05
2.18852e-05
2.17052e-05
2.15146e-05
2.13346e-05
2.11229e-05
2.09217e-05
2.071e-05
2.04982e-05
2.03182e-05
2.01064e-05
1.98841e-05
1.96935e-05
1.94923e-05
1.93335e-05
1.91324e-05
1.89524e-05
1.87618e-05
1.86241e-05
1.84759e-05
1.83065e-05
1.81689e-05
1.80418e-05
1.79253e-05
1.78195e-05
1.77136e-05
1.76289e-05
1.75336e-05
1.75124e-05
1.74277e-05
1.73959e-05
1.73748e-05
1.7343e-05
1.73642e-05
1.73536e-05
1.74065e-05
1.74383e-05
1.75018e-05
1.75548e-05
1.76395e-05
1.77136e-05
1.78089e-05
1.79253e-05
1.80524e-05
1.81689e-05
1.83171e-05
1.84547e-05
1.86135e-05
1.87935e-05
1.89524e-05
1.91324e-05
1.93124e-05
1.95029e-05
1.97041e-05
1.98947e-05
2.01064e-05
2.03076e-05
2.04982e-05
2.071e-05
2.09111e-05
2.11123e-05
2.13135e-05
2.1504e-05
2.17158e-05
2.18958e-05
2.20652e-05
2.2277e-05
2.24146e-05
2.25946e-05
2.27534e-05
2.28805e-05
2.30075e-05
2.31558e-05
2.32722e-05
2.33887e-05
2.35052e-05
2.35687e-05
2.36428e-05
2.37063e-05
2.37593e-05
2.37804e-05
2.38122e-05
2.38228e-05
7.14155e-05
7.13837e-05
7.13096e-05
7.11719e-05
7.10343e-05
7.08543e-05
7.06214e-05
7.03567e-05
7.00814e-05
6.9732e-05
6.93614e-05
6.89908e-05
6.85673e-05
6.81438e-05
6.76673e-05
6.71803e-05
6.66721e-05
6.61321e-05
6.55921e-05
6.50204e-05
6.4438e-05
6.38451e-05
6.32522e-05
6.26593e-05
6.20452e-05
6.14417e-05
6.08487e-05
6.02135e-05
5.96099e-05
5.90276e-05
5.84453e-05
5.78735e-05
5.73335e-05
5.67724e-05
5.62642e-05
5.57665e-05
5.52901e-05
5.48666e-05
5.44325e-05
5.40513e-05
5.36807e-05
5.33525e-05
5.3056e-05
5.27913e-05
5.2569e-05
5.2389e-05
5.22302e-05
5.21137e-05
5.20396e-05
5.19866e-05
5.19761e-05
5.20184e-05
5.21243e-05
5.22408e-05
5.23678e-05
5.2569e-05
5.27913e-05
5.30454e-05
5.33419e-05
5.36701e-05
5.40407e-05
5.44325e-05
5.4856e-05
5.52901e-05
5.57877e-05
5.6243e-05
5.67936e-05
5.7323e-05
5.78735e-05
5.84453e-05
5.90064e-05
5.96099e-05
6.02135e-05
6.0817e-05
6.14205e-05
6.20346e-05
6.26381e-05
6.3231e-05
6.38557e-05
6.4438e-05
6.50098e-05
6.55709e-05
6.61215e-05
6.66615e-05
6.71697e-05
6.76462e-05
6.81226e-05
6.85779e-05
6.89802e-05
6.9372e-05
6.97532e-05
7.00496e-05
7.03461e-05
7.06214e-05
7.08543e-05
7.10025e-05
7.11719e-05
7.13096e-05
7.13731e-05
7.14155e-05
0.000118712
0.000118638
0.0001185
0.000118331
0.000118066
0.000117769
0.000117378
0.000116965
0.000116467
0.000115916
0.000115334
0.000114667
0.000114
0.000113259
0.000112465
0.00011165
0.000110824
0.000109924
0.000109024
0.000108071
0.000107097
0.000106112
0.000105149
0.000104132
0.000103105
0.000102089
0.000101104
0.000100088
9.90817e-05
9.8097e-05
9.71441e-05
9.61806e-05
9.52806e-05
9.43912e-05
9.35442e-05
9.26972e-05
9.19243e-05
9.11619e-05
9.04737e-05
8.98173e-05
8.92243e-05
8.86738e-05
8.81761e-05
8.77314e-05
8.7382e-05
8.70538e-05
8.68103e-05
8.66091e-05
8.64715e-05
8.64185e-05
8.63868e-05
8.64503e-05
8.65879e-05
8.67891e-05
8.7022e-05
8.73714e-05
8.7742e-05
8.81761e-05
8.86526e-05
8.91926e-05
8.97961e-05
9.04631e-05
9.11513e-05
9.19031e-05
9.26972e-05
9.3523e-05
9.43701e-05
9.527e-05
9.617e-05
9.71123e-05
9.8097e-05
9.90605e-05
0.000100056
0.000101072
0.000102078
0.000103094
0.000104111
0.000105117
0.000106101
0.000107086
0.00010805
0.000108992
0.000109903
0.000110792
0.000111639
0.000112454
0.000113217
0.000113979
0.000114667
0.000115313
0.000115895
0.000116446
0.000116912
0.000117378
0.000117748
0.000118066
0.000118299
0.000118521
0.000118627
0.00011869
0.000165489
0.000165426
0.000165256
0.000164991
0.000164653
0.000164208
0.0001637
0.000163096
0.000162429
0.000161667
0.00016082
0.00015992
0.000158935
0.000157919
0.00015686
0.000155716
0.000154509
0.000153292
0.000152032
0.000150708
0.000149374
0.000148008
0.0001466
0.000145203
0.000143805
0.000142376
0.000140957
0.000139559
0.000138172
0.000136775
0.00013543
0.000134128
0.000132836
0.000131608
0.000130411
0.000129257
0.000128156
0.000127129
0.000126144
0.000125255
0.000124429
0.000123656
0.000122968
0.000122364
0.000121814
0.00012138
0.000121041
0.000120766
0.000120575
0.00012048
0.000120512
0.000120617
0.000120755
0.000121009
0.00012138
0.000121793
0.000122343
0.000122936
0.000123646
0.000124408
0.000125244
0.000126134
0.000127118
0.000128188
0.000129247
0.000130422
0.000131608
0.000132825
0.000134117
0.000135441
0.000136775
0.00013814
0.000139528
0.000140936
0.000142344
0.000143741
0.000145171
0.000146568
0.000147945
0.000149332
0.000150677
0.000152
0.000153281
0.000154499
0.000155674
0.000156807
0.000157908
0.000158914
0.000159888
0.000160799
0.000161624
0.000162387
0.000163064
0.000163657
0.000164176
0.000164631
0.000165002
0.000165214
0.000165447
0.00016551
0.000211642
0.000211536
0.000211324
0.000210996
0.000210562
0.00020999
0.000209344
0.000208571
0.000207692
0.000206708
0.00020566
0.000204516
0.000203277
0.000201964
0.000200577
0.000199148
0.000197602
0.000196046
0.000194394
0.0001927
0.000191006
0.000189259
0.00018747
0.00018567
0.000183891
0.000182091
0.000180249
0.00017847
0.000176702
0.000174944
0.000173218
0.000171545
0.000169915
0.000168316
0.00016677
0.000165309
0.00016389
0.000162577
0.000161328
0.000160142
0.000159105
0.00015813
0.000157252
0.000156468
0.000155791
0.000155229
0.000154774
0.000154435
0.000154213
0.000154107
0.000154118
0.000154224
0.000154446
0.000154795
0.000155229
0.000155769
0.000156447
0.00015723
0.000158099
0.000159094
0.000160163
0.000161317
0.000162577
0.00016389
0.000165288
0.00016677
0.000168305
0.000169883
0.000171535
0.000173208
0.000174902
0.00017667
0.000178427
0.000180238
0.000182049
0.00018387
0.00018567
0.00018747
0.000189238
0.000190964
0.0001927
0.000194373
0.000196025
0.000197581
0.000199116
0.000200577
0.000201954
0.000203277
0.000204506
0.000205649
0.000206708
0.000207682
0.000208561
0.000209312
0.000209979
0.000210509
0.000210964
0.000211314
0.000211557
0.000211663
0.000257
0.000256842
0.000256566
0.000256143
0.000255613
0.000254946
0.000254142
0.00025322
0.000252162
0.000250986
0.000249716
0.000248297
0.000246815
0.000245227
0.000243543
0.000241764
0.000239943
0.000238006
0.000236015
0.000233982
0.000231886
0.000229747
0.00022763
0.000225448
0.000223257
0.000221054
0.000218852
0.000216682
0.000214522
0.000212394
0.000210308
0.000208243
0.000206253
0.000204336
0.000202494
0.000200694
0.000199
0.00019738
0.000195845
0.000194468
0.000193155
0.000191969
0.0001909
0.000189958
0.000189142
0.000188475
0.000187914
0.000187512
0.000187237
0.000187099
0.000187088
0.000187205
0.000187491
0.000187925
0.000188486
0.000189153
0.000189958
0.000190879
0.000191959
0.000193145
0.000194447
0.000195855
0.000197359
0.000198979
0.000200683
0.000202462
0.000204326
0.000206253
0.000208222
0.000210287
0.000212372
0.00021449
0.00021666
0.000218831
0.000221033
0.000223225
0.000225406
0.000227587
0.000229747
0.000231875
0.000233961
0.000236005
0.000237963
0.00023989
0.000241743
0.000243511
0.000245205
0.000246794
0.000248287
0.000249674
0.000250965
0.000252151
0.000253189
0.00025411
0.000254925
0.000255603
0.000256153
0.000256566
0.000256831
0.000256958
0.000301258
0.000301099
0.000300781
0.000300316
0.000299659
0.000298854
0.000297933
0.000296874
0.000295636
0.000294259
0.000292745
0.000291104
0.000289346
0.000287472
0.000285514
0.000283417
0.000281257
0.000279013
0.000276683
0.000274312
0.000271866
0.000269399
0.000266837
0.000264285
0.000261712
0.000259118
0.000256577
0.000254004
0.000251484
0.000248985
0.00024654
0.000244136
0.000241807
0.000239541
0.000237349
0.000235253
0.000233273
0.000231367
0.000229609
0.000227958
0.000226412
0.000225035
0.000223797
0.000222674
0.000221743
0.000220927
0.000220292
0.000219805
0.000219477
0.000219329
0.000219329
0.000219477
0.000219794
0.000220271
0.000220938
0.000221732
0.000222674
0.000223797
0.000225035
0.000226433
0.000227937
0.000229609
0.000231367
0.000233262
0.000235263
0.000237328
0.00023952
0.000241796
0.000244115
0.000246497
0.000248964
0.000251431
0.000253983
0.000256545
0.000259118
0.000261691
0.000264253
0.000266815
0.000269356
0.000271855
0.00027428
0.000276652
0.000278981
0.000281247
0.000283417
0.000285492
0.000287462
0.000289336
0.000291072
0.000292713
0.000294227
0.000295583
0.000296822
0.000297933
0.000298854
0.000299659
0.000300294
0.000300781
0.000301088
0.000301268
0.000344361
0.000344181
0.0003438
0.00034325
0.000342519
0.00034163
0.00034056
0.0003393
0.000337913
0.000336346
0.000334631
0.000332757
0.000330735
0.000328606
0.00032633
0.000323948
0.00032146
0.000318897
0.00031625
0.000313519
0.000310723
0.000307907
0.000305017
0.000302084
0.00029913
0.000296207
0.000293264
0.000290352
0.000287441
0.000284582
0.000281787
0.000279044
0.000276355
0.000273772
0.000271273
0.000268912
0.000266625
0.000264465
0.000262443
0.000260569
0.000258811
0.000257212
0.000255783
0.000254512
0.000253422
0.000252511
0.00025177
0.00025123
0.000250859
0.000250658
0.000250648
0.000250849
0.000251219
0.000251759
0.000252501
0.000253432
0.000254512
0.000255783
0.000257202
0.00025879
0.000260547
0.000262432
0.000264475
0.000266604
0.000268869
0.000271273
0.000273761
0.000276344
0.000279023
0.000281766
0.000284561
0.000287441
0.000290321
0.000293253
0.000296176
0.00029913
0.000302073
0.000304995
0.000307865
0.000310723
0.000313508
0.00031625
0.000318897
0.000321481
0.000323948
0.00032633
0.000328596
0.000330735
0.000332725
0.000334578
0.000336304
0.000337871
0.0003393
0.00034055
0.00034164
0.00034254
0.00034326
0.000343789
0.000344171
0.000344329
0.000386067
0.000385876
0.000385442
0.000384839
0.000384034
0.000383049
0.000381821
0.000380402
0.000378804
0.000377078
0.00037513
0.000373065
0.00037081
0.000368396
0.000365855
0.000363187
0.000360402
0.000357511
0.000354557
0.000351519
0.000348374
0.000345187
0.000341937
0.000338676
0.000335372
0.000332069
0.000328786
0.000325504
0.000322264
0.000319056
0.000315912
0.000312852
0.000309845
0.000306901
0.000304138
0.000301448
0.000298907
0.000296493
0.000294238
0.000292099
0.000290141
0.000288372
0.000286752
0.000285334
0.000284105
0.000283078
0.000282253
0.000281638
0.000281226
0.000281003
0.000280993
0.000281215
0.000281617
0.000282242
0.000283057
0.000284095
0.000285344
0.000286752
0.000288383
0.000290119
0.000292099
0.000294217
0.000296462
0.000298876
0.000301438
0.000304127
0.000306912
0.000309813
0.000312809
0.00031588
0.000319035
0.000322233
0.000325472
0.000328765
0.000332058
0.00033534
0.000338665
0.000341926
0.000345177
0.000348363
0.000351497
0.000354568
0.000357564
0.000360423
0.000363218
0.000365876
0.000368396
0.000370799
0.000373065
0.000375151
0.000377088
0.000378835
0.000380424
0.000381821
0.000383039
0.000384055
0.000384839
0.000385453
0.000385866
0.000386088
0.000426269
0.000426036
0.000425602
0.000424914
0.000424035
0.000422892
0.000421537
0.000420012
0.000418254
0.000416306
0.000414189
0.00041187
0.000409392
0.000406756
0.00040395
0.000400996
0.000397925
0.000394749
0.000391456
0.000388089
0.000384638
0.000381091
0.000377533
0.000373923
0.00037028
0.000366617
0.000362975
0.000359364
0.000355796
0.00035226
0.000348776
0.000345388
0.000342074
0.000338877
0.000335796
0.00033282
0.000329972
0.000327325
0.000324816
0.000322465
0.000320327
0.000318347
0.000316557
0.000315012
0.000313656
0.000312523
0.000311623
0.000310935
0.00031048
0.000310226
0.000310247
0.000310469
0.000310903
0.000311592
0.000312502
0.000313667
0.000315001
0.000316579
0.000318347
0.000320316
0.000322476
0.000324784
0.000327294
0.000329972
0.000332799
0.000335743
0.000338834
0.000342032
0.000345346
0.000348745
0.000352239
0.000355775
0.000359364
0.000362964
0.000366617
0.00037028
0.00037388
0.000377501
0.000381101
0.000384627
0.000388079
0.000391467
0.00039476
0.000397936
0.000401017
0.000403939
0.000406766
0.000409392
0.000411902
0.000414199
0.000416338
0.000418275
0.000420022
0.000421579
0.000422881
0.000424004
0.000424914
0.000425602
0.000426026
0.00042628
0.000464746
0.000464502
0.000464026
0.000463285
0.000462289
0.000461061
0.000459621
0.000457906
0.000456021
0.000453914
0.000451574
0.000449065
0.000446365
0.000443475
0.000440415
0.000437217
0.000433893
0.000430388
0.000426788
0.000423104
0.000419334
0.000415491
0.000411573
0.000407645
0.000403664
0.000399683
0.000395744
0.000391774
0.000387878
0.000384045
0.000380223
0.000376517
0.000372938
0.000369455
0.000366045
0.000362827
0.000359767
0.000356834
0.000354102
0.00035154
0.0003492
0.00034704
0.000345124
0.00034343
0.000341958
0.000340719
0.000339713
0.000338972
0.000338485
0.00033822
0.000338199
0.000338443
0.000338972
0.000339724
0.000340719
0.000341958
0.00034344
0.000345134
0.000347061
0.000349211
0.00035154
0.000354102
0.000356823
0.000359735
0.000362816
0.000366045
0.000369412
0.000372906
0.000376506
0.000380233
0.000384002
0.000387899
0.000391806
0.000395755
0.000399694
0.000403685
0.000407656
0.000411605
0.000415491
0.000419355
0.000423125
0.000426799
0.000430399
0.000433882
0.000437207
0.000440447
0.000443485
0.000446376
0.000449086
0.000451627
0.000453936
0.000456064
0.00045797
0.000459621
0.000461093
0.0004623
0.000463295
0.000464015
0.000464545
0.000464778
0.000501412
0.000501115
0.000500596
0.000499813
0.000498744
0.000497431
0.000495864
0.000494032
0.000491978
0.00048968
0.000487182
0.000484471
0.000481559
0.000478436
0.000475133
0.000471691
0.00046807
0.000464301
0.000460447
0.000456445
0.00045239
0.000448229
0.000444025
0.00043978
0.000435491
0.000431203
0.000426915
0.00042268
0.000418434
0.000414294
0.000410186
0.000406184
0.000402298
0.000398518
0.000394887
0.000391403
0.000388089
0.000384945
0.00038197
0.000379248
0.000376697
0.000374378
0.000372313
0.00037045
0.000368872
0.000367538
0.000366469
0.000365643
0.000365103
0.000364838
0.000364838
0.000365092
0.000365654
0.000366448
0.000367538
0.000368862
0.000370471
0.000372303
0.000374378
0.000376686
0.000379227
0.00038197
0.000384945
0.000388089
0.000391403
0.000394855
0.000398508
0.000402277
0.000406195
0.000410176
0.000414294
0.000418455
0.000422669
0.000426915
0.000431214
0.000435481
0.000439811
0.000444046
0.00044826
0.0004524
0.000456487
0.000460458
0.000464333
0.000468092
0.000471713
0.000475164
0.000478468
0.000481581
0.000484503
0.000487235
0.000489744
0.000492052
0.000494074
0.000495906
0.000497452
0.000498786
0.000499845
0.000500649
0.000501158
0.000501454
0.000536066
0.000535791
0.000535198
0.00053434
0.000533207
0.000531799
0.000530126
0.000528189
0.000525986
0.000523519
0.000520841
0.000517939
0.000514816
0.000511481
0.000507976
0.000504281
0.000500385
0.000496404
0.000492243
0.000487997
0.000483613
0.000479188
0.000474709
0.000470146
0.000465582
0.000460998
0.000456403
0.000451871
0.000447318
0.00044285
0.000438498
0.00043421
0.000430039
0.000426036
0.00042214
0.000418413
0.000414845
0.000411499
0.000408355
0.00040539
0.000402679
0.000400223
0.000397978
0.00039603
0.000394315
0.000392896
0.000391753
0.000390874
0.00039026
0.000389995
0.000389995
0.000390281
0.000390853
0.000391742
0.000392875
0.000394315
0.000396009
0.000397968
0.000400191
0.000402669
0.000405401
0.000408323
0.000411499
0.000414856
0.000418413
0.00042214
0.000426015
0.00043006
0.000434221
0.00043852
0.000442871
0.00044735
0.00045185
0.000456403
0.000461008
0.000465593
0.000470156
0.00047473
0.000479219
0.000483656
0.000488018
0.000492285
0.000496425
0.000500416
0.000504292
0.000507997
0.000511513
0.000514869
0.000517992
0.000520904
0.000523572
0.000526018
0.000528231
0.000530147
0.000531841
0.00053325
0.000534382
0.000535251
0.000535812
0.000536077
0.000568592
0.000568296
0.000567703
0.000566782
0.000565585
0.000564082
0.000562303
0.000560238
0.000557909
0.000555325
0.000552467
0.000549354
0.00054604
0.000542514
0.000538787
0.000534859
0.000530772
0.000526516
0.000522101
0.00051759
0.000512963
0.000508241
0.000503445
0.000498627
0.000493799
0.000488939
0.000484048
0.000479219
0.000474444
0.000469701
0.000465074
0.000460511
0.000456095
0.000451829
0.00044772
0.00044375
0.000439991
0.000436444
0.000433067
0.000429922
0.000427042
0.000424448
0.000422087
0.000419991
0.000418212
0.000416687
0.000415459
0.000414549
0.000413934
0.000413596
0.000413617
0.000413934
0.000414549
0.00041547
0.000416687
0.000418201
0.00041998
0.000422077
0.000424438
0.000427074
0.000429933
0.000433067
0.000436423
0.000440002
0.000443782
0.000447731
0.00045185
0.000456138
0.000460564
0.000465106
0.000469733
0.000474444
0.00047923
0.00048409
0.000488939
0.000493831
0.000498659
0.000503508
0.000508283
0.000513006
0.000517611
0.000522132
0.000526526
0.000530804
0.000534901
0.000538808
0.000542556
0.000546093
0.000549396
0.000552477
0.000555357
0.00055793
0.000560249
0.000562313
0.000564124
0.000565617
0.000566803
0.000567713
0.000568338
0.000568624
0.000598863
0.000598545
0.000597931
0.000596978
0.000595708
0.000594119
0.000592235
0.000590075
0.000587608
0.000584876
0.000581869
0.000578598
0.000575104
0.000571398
0.000567459
0.00056333
0.00055901
0.000554531
0.000549894
0.000545108
0.000540259
0.000535293
0.000530264
0.000525171
0.000520036
0.000514911
0.000509787
0.000504673
0.000499644
0.000494657
0.000489776
0.000485
0.000480331
0.00047581
0.000471469
0.000467308
0.000463359
0.000459589
0.000456053
0.000452771
0.000449732
0.000446958
0.000444502
0.00044231
0.000440394
0.000438816
0.000437514
0.000436518
0.000435894
0.000435566
0.000435576
0.000435904
0.000436561
0.000437503
0.000438784
0.000440372
0.000442278
0.000444481
0.000446969
0.000449743
0.000452771
0.000456085
0.0004596
0.00046338
0.000467329
0.000471511
0.000475853
0.000480352
0.000485011
0.000489797
0.00049471
0.000499654
0.000504726
0.000509808
0.000514943
0.000520068
0.000525203
0.000530274
0.000535314
0.000540269
0.000545161
0.000549915
0.000554531
0.000559031
0.000563351
0.000567491
0.00057143
0.000575157
0.00057864
0.000581912
0.000584897
0.000587608
0.000590075
0.000592267
0.000594119
0.000595718
0.000596989
0.000597942
0.000598588
0.000598895
0.000626794
0.000626455
0.000625788
0.000624782
0.000623469
0.000621807
0.000619848
0.000617572
0.000614978
0.000612108
0.000608964
0.000605576
0.000601912
0.000598005
0.000593876
0.000589556
0.000585056
0.000580345
0.000575495
0.000570508
0.000565394
0.000560196
0.000554944
0.000549576
0.00054424
0.000538861
0.000533514
0.000528125
0.000522863
0.000517664
0.00051254
0.000507542
0.000502661
0.000497939
0.000493386
0.000489045
0.000484863
0.000480914
0.00047725
0.000473798
0.000470633
0.000467721
0.000465127
0.000462829
0.00046086
0.000459155
0.000457811
0.000456805
0.000456127
0.000455788
0.000455799
0.000456148
0.000456805
0.000457811
0.000459155
0.000460828
0.000462829
0.000465127
0.000467732
0.000470622
0.000473809
0.00047725
0.000480945
0.000484873
0.000489045
0.000493407
0.00049796
0.000502703
0.000507563
0.000512571
0.000517685
0.000522905
0.000528189
0.000533514
0.000538893
0.000544272
0.000549629
0.000554955
0.000560228
0.000565426
0.00057054
0.000575527
0.000580355
0.000585046
0.000589577
0.000593929
0.000598026
0.000601933
0.000605576
0.000609006
0.000612151
0.000615009
0.000617582
0.000619859
0.000621828
0.000623448
0.000624803
0.000625788
0.000626444
0.000626804
0.000652184
0.000651845
0.000651157
0.000650098
0.0006487
0.000647006
0.000644952
0.000642602
0.000639923
0.000636937
0.000633665
0.000630129
0.000626296
0.000622252
0.000617953
0.000613432
0.000608731
0.00060385
0.000598799
0.000593601
0.000588296
0.000582896
0.00057738
0.000571853
0.000566263
0.000560683
0.000555071
0.000549523
0.000544017
0.000538596
0.00053325
0.00052804
0.000523011
0.000518077
0.000513334
0.00050877
0.000504461
0.000500364
0.000496499
0.000492941
0.000489638
0.000486631
0.00048391
0.000481517
0.000479442
0.000477674
0.000476276
0.000475249
0.000474529
0.00047419
0.00047419
0.00047454
0.000475238
0.000476287
0.000477705
0.000479442
0.000481517
0.00048391
0.000486631
0.000489638
0.000492952
0.000496531
0.000500353
0.00050445
0.00050877
0.000513355
0.000518098
0.000523
0.000528083
0.000533292
0.000538618
0.000544049
0.000549534
0.000555082
0.000560683
0.000566273
0.000571843
0.000577391
0.000582896
0.000588307
0.000593611
0.000598821
0.000603882
0.000608763
0.000613474
0.000617953
0.000622262
0.000626307
0.00063014
0.000633665
0.000636958
0.000639933
0.000642612
0.000644994
0.000647027
0.000648743
0.000650108
0.000651146
0.000651855
0.000652194
0.000675022
0.000674683
0.000673921
0.000672851
0.000671401
0.000669643
0.000667536
0.00066508
0.000662327
0.000659246
0.000655858
0.000652173
0.000648234
0.00064401
0.000639584
0.000634883
0.000630013
0.000624983
0.000619742
0.000614364
0.000608858
0.000603257
0.000597571
0.000591843
0.000586062
0.000580239
0.000574468
0.000568719
0.000563012
0.000557379
0.000551884
0.000546495
0.000541233
0.000536151
0.000531238
0.000526526
0.000522048
0.000517791
0.000513821
0.000510126
0.000506695
0.000503582
0.000500766
0.000498299
0.000496139
0.00049435
0.000492899
0.000491809
0.000491046
0.000490697
0.000490697
0.000491046
0.000491798
0.000492888
0.000494339
0.000496139
0.000498278
0.000500766
0.000503582
0.000506716
0.000510136
0.000513831
0.000517823
0.000522048
0.000526558
0.000531259
0.000536161
0.000541243
0.000546495
0.000551895
0.000557411
0.000563023
0.00056873
0.0005745
0.00058026
0.000586041
0.000591833
0.000597571
0.000603267
0.000608868
0.000614374
0.000619742
0.000624994
0.000630065
0.000634925
0.000639595
0.00064401
0.000648213
0.000652194
0.000655868
0.000659235
0.000662337
0.000665122
0.000667568
0.000669675
0.000671454
0.000672872
0.000673952
0.000674683
0.000675053
0.000695171
0.000694779
0.000694038
0.000692947
0.000691486
0.000689633
0.000687452
0.000684921
0.000682084
0.000678929
0.000675445
0.000671644
0.000667578
0.000663248
0.000658653
0.000653835
0.000648817
0.000643597
0.000638218
0.000632681
0.000627006
0.000621225
0.00061538
0.000609483
0.0006035
0.000597539
0.000591578
0.00058566
0.000579773
0.000573992
0.000568306
0.000562737
0.000557327
0.000552075
0.000547024
0.000542186
0.000537559
0.000533197
0.000529089
0.000525266
0.000521741
0.000518522
0.000515652
0.000513101
0.000510856
0.000509035
0.000507532
0.000506388
0.000505647
0.000505266
0.000505245
0.000505657
0.000506399
0.000507542
0.000509014
0.000510867
0.00051308
0.000515642
0.000518532
0.000521741
0.000525277
0.000529089
0.000533207
0.000537591
0.000542196
0.000547046
0.000552107
0.000557348
0.000562748
0.000568306
0.000574013
0.000579794
0.00058567
0.000591589
0.00059755
0.000603532
0.000609472
0.000615391
0.000621246
0.000627006
0.000632681
0.000638218
0.000643618
0.000648817
0.000653846
0.000658685
0.000663248
0.000667578
0.000671644
0.000675424
0.000678907
0.000682105
0.000684964
0.000687463
0.000689675
0.000691486
0.000692989
0.000694112
0.000694832
0.000695213
0.000712577
0.000712175
0.000711434
0.000710301
0.000708787
0.000706902
0.000704657
0.000702084
0.000699141
0.000695869
0.000692312
0.000688437
0.000684265
0.000679829
0.000675117
0.000670194
0.000665016
0.000659669
0.000654164
0.00064851
0.000642676
0.000636746
0.000630722
0.000624676
0.000618556
0.000612437
0.000606349
0.00060026
0.000594257
0.000588307
0.000582462
0.000576766
0.000571207
0.000565818
0.000560651
0.000555664
0.000550931
0.000546474
0.000542249
0.000538332
0.000534711
0.000531418
0.000528453
0.000525817
0.000523562
0.000521656
0.000520142
0.000518988
0.000518236
0.000517834
0.000517834
0.000518225
0.000518988
0.000520131
0.000521677
0.000523583
0.000525859
0.000528474
0.000531428
0.000534732
0.000538321
0.000542249
0.000546484
0.000550963
0.000555696
0.000560672
0.00056586
0.000571239
0.000576776
0.000582494
0.000588307
0.000594247
0.00060025
0.000606349
0.000612468
0.000618588
0.000624708
0.000630775
0.000636768
0.000642686
0.000648499
0.000654174
0.000659701
0.000665037
0.000670215
0.000675149
0.000679871
0.000684297
0.000688458
0.000692344
0.000695922
0.000699173
0.000702116
0.0007047
0.000706934
0.000708829
0.000710343
0.000711486
0.000712249
0.000712641
0.000727178
0.000726775
0.000726003
0.000724848
0.000723303
0.000721376
0.000719067
0.000716431
0.000713445
0.000710121
0.000706468
0.000702519
0.000698262
0.000693688
0.000688913
0.000683884
0.000678643
0.000673158
0.000667525
0.000661713
0.000655805
0.000649738
0.000643618
0.000637382
0.000631145
0.000624909
0.000618662
0.000612479
0.000606327
0.000600282
0.00059431
0.000588497
0.000582822
0.000577327
0.000572023
0.000566972
0.000562133
0.000557538
0.00055324
0.000549227
0.000545553
0.000542196
0.000539168
0.000536489
0.000534192
0.000532244
0.000530677
0.000529491
0.000528718
0.000528337
0.000528337
0.000528707
0.000529512
0.000530698
0.000532265
0.000534203
0.000536521
0.000539189
0.000542207
0.000545574
0.000549269
0.000553282
0.00055757
0.000562144
0.000566993
0.000572054
0.000577338
0.000582822
0.000588508
0.000594321
0.000600271
0.000606338
0.0006125
0.000618694
0.000624941
0.000631188
0.000637424
0.000643629
0.00064978
0.000655826
0.000661755
0.000667547
0.000673169
0.000678643
0.000683905
0.000688945
0.000693741
0.000698294
0.00070255
0.00070651
0.000710152
0.000713488
0.000716452
0.000719131
0.000721407
0.000723334
0.00072487
0.000726055
0.000726839
0.00072721
0.000738877
0.000738496
0.000737692
0.000736506
0.000734949
0.000733012
0.000730682
0.000727982
0.000724933
0.000721556
0.000717829
0.000713795
0.000709464
0.000704858
0.000699977
0.000694885
0.000689527
0.000683958
0.000678219
0.000672322
0.000666297
0.000660167
0.00065392
0.00064761
0.000641278
0.000634904
0.000628573
0.000622262
0.000616026
0.000609864
0.000603829
0.000597889
0.000592118
0.000586549
0.000581139
0.000575993
0.00057107
0.000566422
0.000562038
0.000557983
0.000554245
0.000550815
0.000547755
0.000545034
0.000542683
0.000540703
0.000539126
0.000537919
0.000537125
0.000536733
0.000536733
0.000537135
0.000537929
0.000539136
0.000540725
0.000542694
0.000545034
0.000547776
0.000550868
0.000554277
0.000558036
0.000562091
0.000566464
0.000571123
0.000576014
0.00058117
0.00058657
0.00059214
0.000597899
0.000603829
0.000609885
0.000616047
0.000622315
0.000628626
0.000634946
0.000641299
0.000647641
0.000653962
0.000660199
0.00066635
0.000672375
0.000678262
0.000684011
0.00068957
0.000694895
0.00070002
0.000704901
0.000709517
0.000713848
0.000717882
0.000721598
0.000724965
0.000728014
0.000730704
0.000733033
0.000734981
0.000736569
0.000737745
0.000738549
0.00073893
0.000747697
0.000747305
0.000746501
0.000745283
0.000743695
0.000741736
0.000739396
0.000736665
0.000733562
0.000730121
0.000726363
0.000722286
0.000717892
0.000713234
0.000708289
0.00070309
0.00069769
0.000692068
0.000686256
0.000680295
0.000674196
0.000667981
0.00066166
0.000655275
0.00064888
0.000642411
0.000635984
0.00062961
0.000623289
0.000617053
0.000610901
0.000604919
0.000599096
0.000593421
0.000588
0.000582759
0.000577793
0.000573071
0.000568687
0.000564547
0.000560746
0.000557284
0.000554171
0.000551418
0.000549057
0.000547046
0.000545447
0.00054424
0.000543425
0.000543001
0.000543001
0.000543425
0.000544219
0.000545426
0.000547024
0.000549036
0.000551429
0.000554192
0.000557295
0.000560757
0.000564537
0.000568666
0.000573102
0.000577804
0.00058279
0.000588
0.000593463
0.000599117
0.00060494
0.000610923
0.000617074
0.000623321
0.000629642
0.000636037
0.000642485
0.000648891
0.000655307
0.00066167
0.000668002
0.000674228
0.000680337
0.000686308
0.000692121
0.000697743
0.000703154
0.000708321
0.000713265
0.000717935
0.000722318
0.000726384
0.000730164
0.000733594
0.000736696
0.000739428
0.000741779
0.000743758
0.000745336
0.000746522
0.000747316
0.000747729
0.000753531
0.000753139
0.000752335
0.000751128
0.000749508
0.000747517
0.000745156
0.000742393
0.000739269
0.000735796
0.000732038
0.000727898
0.000723483
0.000718771
0.000713784
0.000708554
0.000703101
0.000697436
0.000691581
0.000685557
0.000679384
0.000673137
0.000666784
0.000660357
0.000653878
0.000647419
0.000640929
0.000634481
0.000628086
0.000621786
0.000615624
0.000609567
0.000603659
0.000597995
0.0005925
0.000587227
0.000582208
0.000577465
0.000573007
0.000568857
0.000565013
0.00056153
0.000558375
0.000555622
0.000553218
0.000551196
0.000549576
0.000548359
0.000547533
0.000547141
0.00054713
0.000547522
0.000548359
0.000549566
0.000551186
0.000553218
0.000555622
0.000558396
0.000561519
0.000565035
0.000568857
0.000573028
0.000577465
0.000582229
0.000587227
0.00059251
0.000597973
0.000603712
0.000609599
0.000615645
0.000621817
0.000628117
0.000634502
0.00064095
0.000647408
0.000653888
0.000660368
0.000666795
0.000673169
0.000679458
0.000685599
0.000691624
0.000697468
0.000703143
0.000708575
0.000713805
0.000718803
0.000723525
0.000727951
0.000732069
0.000735849
0.000739301
0.000742414
0.000745167
0.000747549
0.000749571
0.00075117
0.000752377
0.000753171
0.000753573
0.00075639
0.000755977
0.000755172
0.000753965
0.000752356
0.000750344
0.000747941
0.000745167
0.000742075
0.000738613
0.00073479
0.000730651
0.000726204
0.000721492
0.000716505
0.000711232
0.000705758
0.000700062
0.000694175
0.00068813
0.000681957
0.000675657
0.000669262
0.000662803
0.000656313
0.000649812
0.00064329
0.00063681
0.000630394
0.000624073
0.000617868
0.000611812
0.000605914
0.000600176
0.000594638
0.000589376
0.000584326
0.000579572
0.000575082
0.000570921
0.000567067
0.000563563
0.000560397
0.000557623
0.00055522
0.000553197
0.000551567
0.000550338
0.000549502
0.000549079
0.000549089
0.000549502
0.000550338
0.000551567
0.000553187
0.00055522
0.000557623
0.000560408
0.000563563
0.000567067
0.000570921
0.000575114
0.000579603
0.000584347
0.000589376