/*--------------------------------*- C++ -*----------------------------------*\
  =========                 |
  \\      /  F ield         | OpenFOAM: The Open Source CFD Toolbox
   \\    /   O peration     | Website:  https://openfoam.org
    \\  /    A nd           | Version:  7
     \\/     M anipulation  |
\*---------------------------------------------------------------------------*/
FoamFile
{
    version     2.0;
    format      ascii;
    class       volScalarField;
    location    "0.042";
    object      gradTx;
}
// * * * * * * * * * * * * * * * * * * * * * * * * * * * * * * * * * * * * * //

dimensions      [0 -1 0 1 0 0 0];

internalField   nonuniform List<scalar> 
10000
(
2.38122e-05
7.13837e-05
0.00011868
0.00016551
0.000211621
0.000256958
0.000301247
0.000344351
0.000386088
0.00042628
0.000464778
0.000501433
0.000536066
0.000568613
0.000598895
0.000626794
0.000652226
0.000675043
0.000695223
0.000712619
0.000727199
0.000738909
0.000747729
0.000753563
0.000756432
0.000756295
0.000753171
0.000747125
0.000738105
0.000726151
0.000711338
0.000693752
0.000673434
0.000650479
0.000624941
0.000596978
0.000566676
0.000534128
0.000499474
0.000462872
0.000424448
0.000384384
0.000342805
0.00029986
0.00025574
0.000210636
0.000164706
0.000118161
7.1119e-05
2.38016e-05
-2.3611e-05
-7.09284e-05
-0.000117981
-0.000164547
-0.000210498
-0.000255613
-0.000299723
-0.000342635
-0.000384256
-0.000424332
-0.000462745
-0.000499347
-0.000533991
-0.000566549
-0.000596862
-0.000624824
-0.000650331
-0.000673306
-0.000693635
-0.000711232
-0.000726013
-0.000737967
-0.000746998
-0.000753076
-0.000756189
-0.000756337
-0.000753457
-0.000747634
-0.000738856
-0.000727146
-0.000712556
-0.000695139
-0.000675011
-0.000652162
-0.00062673
-0.000598831
-0.000568571
-0.000536034
-0.000501369
-0.000464756
-0.000426238
-0.000386056
-0.000344329
-0.000301258
-0.000256947
-0.000211642
-0.0001655
-0.000118701
-7.13943e-05
-2.38228e-05
2.3844e-05
7.13413e-05
0.000118595
0.000165394
0.000211525
0.000256831
0.000301088
0.000344171
0.000385876
0.000426047
0.000464534
0.000501168
0.00053578
0.000568317
0.000598577
0.000626455
0.000651855
0.000674683
0.000694853
0.000712238
0.000726828
0.000738517
0.000747316
0.000753171
0.00075603
0.000755892
0.000752758
0.000746712
0.000737692
0.000725759
0.000710968
0.000693381
0.000673063
0.000650108
0.000624634
0.000596671
0.000566358
0.000533821
0.000499209
0.000462628
0.000424226
0.000384182
0.000342604
0.000299691
0.000255613
0.00021053
0.0001646
0.000118087
7.10767e-05
2.38016e-05
-2.36005e-05
-7.08755e-05
-0.000117918
-0.000164462
-0.000210371
-0.000255497
-0.000299564
-0.000342466
-0.000384034
-0.000424088
-0.000462501
-0.000499072
-0.000533715
-0.000566242
-0.000596523
-0.000624486
-0.000650002
-0.000672925
-0.000693244
-0.000710851
-0.000725643
-0.000737554
-0.000746607
-0.000752673
-0.000755776
-0.000755903
-0.000753076
-0.000747252
-0.000738454
-0.000726744
-0.000712185
-0.000694768
-0.000674619
-0.000651824
-0.000626413
-0.000598513
-0.000568274
-0.000535748
-0.000501105
-0.000464502
-0.000426015
-0.000385824
-0.000344149
-0.000301099
-0.000256831
-0.000211525
-0.000165426
-0.000118616
-7.13519e-05
-2.38228e-05
2.37804e-05
7.12884e-05
0.000118479
0.000165224
0.000211303
0.000256556
0.000300771
0.000343789
0.000385453
0.000425571
0.000464026
0.000500639
0.00053524
0.000567703
0.000597921
0.000625799
0.000651178
0.000673974
0.000694101
0.000711476
0.000726024
0.000737723
0.000746543
0.000752345
0.000755215
0.000755098
0.000751975
0.000745876
0.000736887
0.000724986
0.000710205
0.000692629
0.000672332
0.00064942
0.000623935
0.000596025
0.000565754
0.00053326
0.000498659
0.00046212
0.000423771
0.000383769
0.000342222
0.000299373
0.000255338
0.000210308
0.00016442
0.000117949
7.10131e-05
2.37487e-05
-2.35899e-05
-7.07908e-05
-0.000117759
-0.000164303
-0.000210149
-0.00025519
-0.000299236
-0.000342106
-0.000383642
-0.000423644
-0.000461961
-0.000498532
-0.000533144
-0.000565617
-0.000595888
-0.000623808
-0.000649283
-0.000672216
-0.000692524
-0.000710078
-0.000724859
-0.00073677
-0.000745791
-0.000751869
-0.00075496
-0.000755109
-0.000752261
-0.000746437
-0.00073766
-0.000725981
-0.000711412
-0.000694038
-0.00067391
-0.000651114
-0.000625735
-0.000597878
-0.00056765
-0.000535187
-0.000500575
-0.000463983
-0.000425549
-0.000385442
-0.000343779
-0.000300771
-0.000256545
-0.000211324
-0.000165214
-0.0001185
-7.12884e-05
-2.37593e-05
2.37487e-05
7.11614e-05
0.000118278
0.00016496
0.000210964
0.000256153
0.000300263
0.00034326
0.000384849
0.000424903
0.000463274
0.000499824
0.000534372
0.000566792
0.000596978
0.000624803
0.00065014
0.000672904
0.000692989
0.000710311
0.00072487
0.000736548
0.000745336
0.000751138
0.000753997
0.00075387
0.000750778
0.000744669
0.000735701
0.000723821
0.000709062
0.000691518
0.000671274
0.000648361
0.000622929
0.000595062
0.000564812
0.000532403
0.000497854
0.000461389
0.000423072
0.000383124
0.000341672
0.000298886
0.000254925
0.000209958
0.000164176
0.000117748
7.08755e-05
2.37275e-05
-2.35475e-05
-7.06955e-05
-0.000117579
-0.000164028
-0.00020981
-0.000254766
-0.000298759
-0.000341545
-0.000383007
-0.000422955
-0.000461241
-0.000497717
-0.000532244
-0.000564706
-0.000594924
-0.000622802
-0.000648245
-0.000671147
-0.000691412
-0.000708924
-0.000723684
-0.000735595
-0.000744584
-0.000750662
-0.000753775
-0.00075388
-0.000751043
-0.00074523
-0.000736485
-0.000724817
-0.000710258
-0.000692915
-0.00067283
-0.000650087
-0.000624772
-0.000596925
-0.000566739
-0.000534308
-0.00049976
-0.000463263
-0.000424872
-0.000384818
-0.000343228
-0.000300273
-0.000256122
-0.000210985
-0.00016496
-0.000118299
-7.11719e-05
-2.37487e-05
2.37169e-05
7.10449e-05
0.000118034
0.000164621
0.000210519
0.000255603
0.000299648
0.00034253
0.000384013
0.000423993
0.000462289
0.000498754
0.000533228
0.000565606
0.000595718
0.000623459
0.000648753
0.000671485
0.000691497
0.000708829
0.000723334
0.00073496
0.000743727
0.00074955
0.000752388
0.00075225
0.000749148
0.000743113
0.000734123
0.000722244
0.000707548
0.000690035
0.000669823
0.000646964
0.000621595
0.000593781
0.000563605
0.000531259
0.000496785
0.000460384
0.000422182
0.000382308
0.000340931
0.00029823
0.000254364
0.000209514
0.000163827
0.000117483
7.07167e-05
2.36852e-05
-2.34734e-05
-7.05473e-05
-0.000117356
-0.000163668
-0.000209365
-0.000254226
-0.000298092
-0.000340814
-0.000382171
-0.000422034
-0.000460257
-0.000496637
-0.000531111
-0.000563489
-0.000593632
-0.000621479
-0.000646858
-0.000669696
-0.000689919
-0.000707431
-0.000722138
-0.000734028
-0.000742986
-0.000749052
-0.000752144
-0.000752282
-0.000749434
-0.000743663
-0.000734918
-0.00072325
-0.000708744
-0.000691444
-0.000671401
-0.000648711
-0.000623427
-0.000595644
-0.000565553
-0.000533186
-0.000498701
-0.000462258
-0.000423961
-0.000384002
-0.000342498
-0.000299648
-0.000255592
-0.000210519
-0.00016461
-0.000118045
-7.10131e-05
-2.36957e-05
2.36428e-05
7.08225e-05
0.000117738
0.000164197
0.000209979
0.000254925
0.000298854
0.000341619
0.000382986
0.00042286
0.000461072
0.000497441
0.000531831
0.000564103
0.000594151
0.000621817
0.000647038
0.000669696
0.000689654
0.000706923
0.000721407
0.000733022
0.000741757
0.00074756
0.000750408
0.000750238
0.000747136
0.000741143
0.000732165
0.000720327
0.000705642
0.000688214
0.000668034
0.000645259
0.000619922
0.000592171
0.000562102
0.000529809
0.000495461
0.000459155
0.000421039
0.00038126
0.00034002
0.000297436
0.000253697
0.000208942
0.000163382
0.000117187
7.05261e-05
2.36322e-05
-2.34205e-05
-7.03673e-05
-0.000117028
-0.000163223
-0.000208825
-0.000253559
-0.000297298
-0.000339893
-0.000381144
-0.000420891
-0.000459007
-0.000495313
-0.000529681
-0.000561985
-0.000592044
-0.000619795
-0.000645121
-0.000667928
-0.000688077
-0.000705536
-0.000720232
-0.000732059
-0.000741027
-0.000747041
-0.000750143
-0.000750281
-0.000747443
-0.000741683
-0.000732959
-0.000721344
-0.000706849
-0.000689612
-0.000669622
-0.000646996
-0.000621765
-0.000594088
-0.000564039
-0.000531788
-0.000497378
-0.00046104
-0.000422839
-0.000382975
-0.000341598
-0.000298844
-0.000254925
-0.000209979
-0.000164176
-0.000117706
-7.08331e-05
-2.36428e-05
2.35793e-05
7.06002e-05
0.000117346
0.000163679
0.000209302
0.000254131
0.000297933
0.000340539
0.000381779
0.000421547
0.0004596
0.000495853
0.000530158
0.000562324
0.000592267
0.000619869
0.000644973
0.000667557
0.000687494
0.0007047
0.000719099
0.000730714
0.000739396
0.000745167
0.000748015
0.000747845
0.000744775
0.000738772
0.000729846
0.00071803
0.000703419
0.000686001
0.000665895
0.000643205
0.000617942
0.000590276
0.000560302
0.000528104
0.000493863
0.000457694
0.000419684
0.000380043
0.00033893
0.000296483
0.000252871
0.000208285
0.000162853
0.000116806
7.03249e-05
2.35475e-05
-2.33781e-05
-7.01237e-05
-0.000116647
-0.000162683
-0.000208148
-0.000252755
-0.000296356
-0.000338803
-0.000379915
-0.000419546
-0.000457535
-0.000493736
-0.000527977
-0.000560164
-0.00059016
-0.000617815
-0.000643089
-0.000665789
-0.000685885
-0.000703313
-0.000717935
-0.000729729
-0.000738644
-0.00074468
-0.00074775
-0.000747888
-0.000745082
-0.000739301
-0.000730629
-0.000719057
-0.000704626
-0.000687431
-0.000667515
-0.000644931
-0.000619785
-0.000592192
-0.000562282
-0.000530105
-0.000495811
-0.000459568
-0.000421515
-0.000381768
-0.000340528
-0.000297901
-0.00025412
-0.000209291
-0.000163657
-0.000117356
-7.06002e-05
-2.35687e-05
2.34946e-05
7.03673e-05
0.000116943
0.000163054
0.000208529
0.000253199
0.000296874
0.0003393
0.000380381
0.00041998
0.000457917
0.000494043
0.00052821
0.000560259
0.000590096
0.000617572
0.000642612
0.000665122
0.000684953
0.000702106
0.000716484
0.000728004
0.000736675
0.000742403
0.000745251
0.000745093
0.000742033
0.00073605
0.000727125
0.000715383
0.000700803
0.000683471
0.000663449
0.000640791
0.000615645
0.000588106
0.000558216
0.000526156
0.000492031
0.000455979
0.000418117
0.000378645
0.000337649
0.000295371
0.000251939
0.000207502
0.00016226
0.000116372
7.00602e-05
2.34628e-05
-2.32828e-05
-6.98802e-05
-0.000116213
-0.00016209
-0.000207354
-0.000251823
-0.000295255
-0.000337543
-0.000378486
-0.000417979
-0.000455841
-0.000491893
-0.000526029
-0.000558089
-0.000587968
-0.000615528
-0.000640696
-0.000663322
-0.000683365
-0.000700687
-0.000715288
-0.00072703
-0.000735913
-0.000741948
-0.000744987
-0.000745124
-0.000742318
-0.00073658
-0.00072793
-0.00071641
-0.000702042
-0.000684911
-0.000665048
-0.000642559
-0.000617529
-0.000590022
-0.000560196
-0.000528157
-0.000494021
-0.000457906
-0.000419948
-0.000380371
-0.000339268
-0.000296822
-0.000253178
-0.00020854
-0.000163054
-0.000116922
-7.03461e-05
-2.34946e-05
2.33887e-05
7.00496e-05
0.000116446
0.000162397
0.000207682
0.000252162
0.000295604
0.000337892
0.000378814
0.000418265
0.000456021
0.000491967
0.000525997
0.000557919
0.000587608
0.000614999
0.000639933
0.000662348
0.000682116
0.000699162
0.000713498
0.000724975
0.000733583
0.000739301
0.000742128
0.00074199
0.00073892
0.000732938
0.000724076
0.000712386
0.00069787
0.00068058
0.000660633
0.000638102
0.000613072
0.000585639
0.000555844
0.000523932
0.000489977
0.000454041
0.000416338
0.000377025
0.00033623
0.000294122
0.000250881
0.000206613
0.000161572
0.000115895
6.97426e-05
2.33463e-05
-2.31664e-05
-6.95838e-05
-0.000115715
-0.000161413
-0.000206496
-0.000250732
-0.000293995
-0.000336103
-0.000376908
-0.000416211
-0.000453904
-0.000489807
-0.000523816
-0.000555749
-0.00058549
-0.000612934
-0.000637985
-0.000660548
-0.000680485
-0.000697743
-0.000712281
-0.00072398
-0.000732821
-0.000738803
-0.000741884
-0.000742001
-0.000739206
-0.00073352
-0.000724901
-0.000713403
-0.000699109
-0.000682042
-0.000662263
-0.00063987
-0.000614946
-0.000587566
-0.000557877
-0.000525955
-0.000491967
-0.000456
-0.000418212
-0.000378793
-0.000337839
-0.000295562
-0.00025213
-0.000207682
-0.000162397
-0.000116456
-7.00496e-05
-2.33887e-05
2.32934e-05
6.97426e-05
0.000115885
0.000161656
0.000206729
0.000250976
0.000294227
0.000336325
0.000377025
0.000416327
0.000453893
0.000489702
0.000523551
0.000555315
0.000584887
0.000612119
0.000636948
0.000659256
0.00067895
0.000695933
0.000710163
0.000721577
0.000730153
0.000735849
0.000738634
0.000738507
0.000735468
0.000729528
0.000720687
0.000709041
0.000694578
0.000677393
0.00065752
0.000635105
0.000610192
0.000582854
0.00055325
0.000521465
0.000487658
0.000451881
0.00041439
0.000375246
0.00033462
0.000292713
0.000249705
0.00020566
0.000160799
0.000115345
6.94355e-05
2.32193e-05
-2.30499e-05
-6.92873e-05
-0.000115196
-0.00016064
-0.000205501
-0.000249525
-0.000292597
-0.000334514
-0.000375119
-0.000414252
-0.000451754
-0.00048752
-0.000521349
-0.000553123
-0.000582727
-0.000610075
-0.000634989
-0.000657425
-0.000677288
-0.000694472
-0.000708914
-0.000720592
-0.000729412
-0.00073533
-0.000738412
-0.000738528
-0.000735743
-0.000730068
-0.000721503
-0.000710089
-0.000695848
-0.000678844
-0.000659172
-0.000636916
-0.000612077
-0.000584823
-0.000555272
-0.000523509
-0.00048967
-0.000453883
-0.000416264
-0.000377036
-0.000336272
-0.000294206
-0.000250955
-0.000206718
-0.000161646
-0.000115906
-6.97214e-05
-2.32722e-05
2.31558e-05
6.93826e-05
0.000115313
0.000160841
0.000205638
0.000249684
0.000292735
0.000334589
0.00037513
0.000414189
0.000451574
0.000487192
0.000520872
0.000552456
0.000581859
0.000608985
0.000633687
0.000655879
0.000675456
0.000692354
0.0007065
0.00071786
0.000726394
0.000732048
0.000734833
0.000734695
0.000731667
0.000725759
0.000716971
0.000705356
0.000690988
0.000673899
0.000654132
0.000631802
0.000607005
0.000579826
0.00055037
0.000518776
0.000485096
0.000449542
0.000412219
0.000373277
0.000332905
0.00029121
0.000248382
0.00020459
0.000159973
0.000114762
6.90544e-05
2.30816e-05
-2.29334e-05
-6.88955e-05
-0.000114604
-0.000159814
-0.000204421
-0.000248234
-0.000291072
-0.000332767
-0.00037316
-0.000412092
-0.000449425
-0.00048499
-0.000518638
-0.000550264
-0.000579699
-0.000606878
-0.000631707
-0.000654036
-0.000673772
-0.000690872
-0.00070525
-0.000716844
-0.000725632
-0.000731551
-0.000734589
-0.000734716
-0.000731974
-0.000726299
-0.000717786
-0.000706415
-0.00069228
-0.00067535
-0.000655794
-0.000633623
-0.000608943
-0.000581816
-0.000552424
-0.000520819
-0.00048715
-0.000451564
-0.000414146
-0.000375087
-0.000334546
-0.000292724
-0.000249695
-0.000205638
-0.00016083
-0.000115324
-6.93614e-05
-2.31452e-05
2.30287e-05
6.89908e-05
0.000114688
0.00015993
0.000204516
0.000248308
0.000291072
0.000332715
0.000373044
0.000411859
0.000449055
0.000484492
0.000517961
0.000549375
0.000578608
0.000605586
0.000630118
0.000652184
0.000671655
0.000688468
0.00070255
0.000713826
0.000722318
0.000727951
0.000730672
0.000730555
0.000727559
0.000721661
0.000712969
0.000701375
0.000687081
0.000670077
0.000650437
0.000628223
0.000603585
0.000576575
0.000547247
0.000515811
0.000482353
0.000447
0.00040989
0.000371159
0.000330989
0.000289558
0.000246984
0.000203426
0.000159062
0.000114117
6.86626e-05
2.29546e-05
-2.28381e-05
-6.85038e-05
-0.000113926
-0.000158893
-0.000203256
-0.000246825
-0.000289421
-0.000330872
-0.000371053
-0.000409773
-0.000446863
-0.000482226
-0.000515705
-0.000547141
-0.000576427
-0.00060349
-0.000628117
-0.00065032
-0.000669971
-0.000686965
-0.000701248
-0.00071281
-0.000721534
-0.000727464
-0.00073046
-0.000730577
-0.000727834
-0.000722223
-0.000713752
-0.000702455
-0.000688405
-0.00067157
-0.000652099
-0.000630076
-0.000605523
-0.000578555
-0.000549333
-0.000517918
-0.000484429
-0.000449023
-0.000411817
-0.000373012
-0.000332704
-0.000291093
-0.000248276
-0.000204516
-0.00015992
-0.000114667
-6.89802e-05
-2.30075e-05
2.28805e-05
6.85779e-05
0.000113989
0.000158967
0.000203288
0.000246804
0.000289325
0.000330703
0.000370778
0.000409392
0.000446355
0.000481581
0.000514827
0.000546061
0.000575125
0.000601902
0.000626296
0.000648245
0.000667589
0.000684307
0.000698283
0.000709517
0.000717924
0.000723514
0.000726246
0.00072613
0.000723144
0.000717267
0.000708585
0.000697119
0.000682899
0.00066598
0.000646477
0.00062439
0.0005999
0.000573028
0.000543901
0.000512656
0.00047941
0.000444269
0.000407359
0.000368883
0.000328966
0.00028779
0.00024546
0.000202197
0.000158088
0.000113386
6.82285e-05
2.28381e-05
-2.27005e-05
-6.80909e-05
-0.000113217
-0.00015795
-0.000201996
-0.00024529
-0.000287652
-0.000328861
-0.000368777
-0.000407232
-0.000444142
-0.000479283
-0.00051254
-0.000543785
-0.000572922
-0.000599773
-0.000624295
-0.00064636
-0.000665863
-0.000682761
-0.000696981
-0.000708458
-0.000717162
-0.000723017
-0.000726024
-0.00072613
-0.000723398
-0.00071786
-0.000709411
-0.000698199
-0.000684212
-0.000667515
-0.00064816
-0.000626264
-0.000601849
-0.000575061
-0.000546019
-0.000514784
-0.000481496
-0.000446323
-0.000409339
-0.000370746
-0.000330692
-0.000289346
-0.000246794
-0.000203277
-0.000158956
-0.000113989
-6.85673e-05
-2.28805e-05
2.27322e-05
6.81438e-05
0.000113259
0.000157929
0.000201964
0.000245227
0.000287462
0.000328564
0.000368385
0.000406724
0.000443485
0.000478468
0.000511491
0.000542525
0.000571408
0.000598016
0.000622241
0.00064401
0.000663259
0.00067985
0.000693741
0.000704901
0.000713276
0.000718824
0.000721534
0.000721397
0.000718422
0.000712588
0.000703937
0.000692566
0.000678431
0.000661617
0.000642263
0.000620325
0.000595962
0.00056927
0.000540343
0.000509321
0.000476244
0.000441315
0.000404702
0.000366469
0.000326806
0.000285895
0.00024385
0.000200853
0.00015705
0.000112624
6.77944e-05
2.26793e-05
-2.25311e-05
-6.76462e-05
-0.000112475
-0.000156892
-0.000200673
-0.000243681
-0.000285768
-0.000326701
-0.000366342
-0.000404564
-0.000441209
-0.000476149
-0.000509162
-0.000540206
-0.000569164
-0.000595877
-0.000620208
-0.000642104
-0.000661501
-0.000678325
-0.000692428
-0.000703831
-0.000712492
-0.000718284
-0.000721291
-0.000721418
-0.000718697
-0.00071317
-0.000704795
-0.000693678
-0.000679755
-0.000663174
-0.000643978
-0.000622188
-0.000597952
-0.000571345
-0.000542461
-0.000511449
-0.000478383
-0.000443432
-0.000406703
-0.000368375
-0.000328575
-0.000287451
-0.000245195
-0.000201964
-0.000157919
-0.000113259
-6.81226e-05
-2.27322e-05
2.25734e-05
6.76779e-05
0.000112497
0.000156828
0.000200588
0.000243522
0.000285492
0.000326309
0.000365855
0.00040395
0.000440404
0.000475143
0.000507987
0.000538808
0.00056748
0.000593876
0.000617953
0.000639584
0.000658663
0.000675159
0.000688924
0.00070002
0.000708321
0.000713869
0.000716537
0.000716378
0.000713435
0.000707654
0.000699056
0.000687738
0.000673719
0.000657022
0.000637784
0.000616015
0.000591801
0.00056531
0.000536606
0.000505721
0.000472909
0.000438244
0.000401885
0.000363917
0.00032453
0.000283894
0.000242156
0.000199434
0.000155949
0.00011184
6.72968e-05
2.25205e-05
-2.23511e-05
-6.71697e-05
-0.000111681
-0.000155791
-0.000199275
-0.000241997
-0.000283777
-0.000324403
-0.000363779
-0.000401748
-0.000438128
-0.000472793
-0.000505605
-0.000536447
-0.000565183
-0.000591716
-0.000615888
-0.000637646
-0.000656895
-0.000673592
-0.000687632
-0.000698961
-0.000707505
-0.000713318
-0.000716272
-0.00071642
-0.000713731
-0.000708236
-0.000699925
-0.000688871
-0.000675075
-0.000658589
-0.000639499
-0.000617889
-0.000593834
-0.000567417
-0.000538713
-0.000507934
-0.000475111
-0.000440372
-0.000403918
-0.000365844
-0.000326309
-0.000285471
-0.000243501
-0.000200577
-0.000156849
-0.000112465
-6.76673e-05
-2.2584e-05
2.24358e-05
6.71909e-05
0.000111671
0.000155716
0.000199127
0.000241733
0.000283417
0.000323937
0.000363187
0.000400985
0.000437207
0.000471691
0.000504292
0.00053488
0.00056334
0.000589567
0.000613453
0.000634894
0.000653846
0.000670215
0.000683894
0.000694906
0.000703143
0.000708607
0.000711296
0.000711137
0.000708183
0.000702444
0.000693942
0.000682687
0.000668764
0.000652173
0.000633083
0.000611484
0.000587449
0.000561149
0.000532614
0.000502015
0.000469426
0.000435004
0.0003989
0.000361238
0.000322137
0.000281797
0.000240367
0.000197962
0.000154764
0.000111014
6.68203e-05
2.23511e-05
-2.21923e-05
-6.66509e-05
-0.000110877
-0.000154647
-0.000197825
-0.000240197
-0.000281649
-0.00032201
-0.00036109
-0.000398773
-0.000434888
-0.000469288
-0.000501856
-0.000532487
-0.000561032
-0.000587354
-0.000611346
-0.000632945
-0.000652067
-0.000668637
-0.000682571
-0.000693815
-0.000702339
-0.000708067
-0.000711021
-0.000711148
-0.000708501
-0.000703037
-0.000694821
-0.000683831
-0.00067012
-0.000653804
-0.000634851
-0.000613379
-0.000589482
-0.000563256
-0.000534806
-0.000504249
-0.000471639
-0.000437164
-0.000400975
-0.000363197
-0.000323927
-0.000283396
-0.000241754
-0.000199116
-0.000155706
-0.00011165
-6.71803e-05
-2.24146e-05
2.22452e-05
6.66933e-05
0.000110824
0.00015452
0.000197602
0.000239901
0.000281247
0.00032146
0.000360402
0.000397915
0.000433861
0.000468092
0.000500427
0.000530772
0.000559021
0.000585046
0.000608741
0.000630023
0.000648838
0.000665048
0.000678632
0.00068957
0.000697733
0.000703143
0.000705811
0.000705642
0.000702699
0.000697013
0.000688595
0.000677425
0.000663587
0.000647154
0.00062816
0.00060673
0.000582907
0.000556797
0.000528485
0.000498098
0.000465783
0.000431637
0.000395818
0.000358401
0.000319649
0.000279606
0.000238482
0.000196406
0.000153578
0.000110178
6.62909e-05
2.21923e-05
-2.20229e-05
-6.61533e-05
-0.000110019
-0.00015344
-0.000196268
-0.000238323
-0.000279457
-0.000319501
-0.000358295
-0.00039566
-0.000431489
-0.000465667
-0.000497981
-0.000528358
-0.000556659
-0.00058278
-0.000606592
-0.000628054
-0.000647027
-0.00066347
-0.000677288
-0.000688458
-0.000696928
-0.000702603
-0.000705526
-0.000705674
-0.000703037
-0.000697627
-0.000689453
-0.000678569
-0.000664974
-0.000648764
-0.00062997
-0.000608678
-0.000584972
-0.000558957
-0.000530719
-0.000500364
-0.000468039
-0.000433808
-0.000397904
-0.000360413
-0.000321449
-0.000281247
-0.000239901
-0.000197592
-0.00015452
-0.000110813
-6.66509e-05
-2.22558e-05
2.20758e-05
6.61639e-05
0.000109913
0.00015326
0.000196046
0.000237984
0.000279013
0.000318908
0.000357511
0.000394739
0.000430388
0.000464322
0.000496425
0.000526526
0.000554531
0.000580345
0.000603871
0.000624973
0.000643586
0.000659712
0.00067319
0.000684
0.000692089
0.000697479
0.000700115
0.000699967
0.000697034
0.000691369
0.000683005
0.00067193
0.000658229
0.000641913
0.000623109
0.000601817
0.000578153
0.000552276
0.000524197
0.000494074
0.000461993
0.000428133
0.000392589
0.0003555
0.000317044
0.000277319
0.000236534
0.000194796
0.000152339
0.000109267
6.57615e-05
2.20123e-05
-2.18429e-05
-6.56133e-05
-0.00010913
-0.00015218
-0.000194648
-0.000236396
-0.000277202
-0.000316875
-0.000355362
-0.000392452
-0.000427995
-0.000461887
-0.000493947
-0.000524049
-0.000552128
-0.000578047
-0.00060169
-0.00062295
-0.000641786
-0.000658102
-0.000671824
-0.000682899
-0.000691285
-0.000696928
-0.000699829
-0.000699999
-0.000697362
-0.000692005
-0.000683894
-0.000673105
-0.000659616
-0.000643533
-0.000624909
-0.000603776
-0.000580302
-0.000554489
-0.000526463
-0.000496351
-0.00046428
-0.000430335
-0.000394717
-0.000357533
-0.000318876
-0.000278981
-0.000237995
-0.000196046
-0.000153292
-0.000109913
-6.61109e-05
-2.20652e-05
2.19064e-05
6.55921e-05
0.000108992
0.000152
0.000194383
0.000236036
0.000276694
0.00031625
0.000354557
0.000391456
0.000426809
0.000460447
0.000492264
0.000522132
0.000549894
0.000575495
0.000598821
0.000619742
0.000638218
0.000654185
0.000667536
0.000678251
0.000686319
0.000691634
0.000694218
0.000694059
0.000691168
0.000685557
0.000677266
0.000666297
0.000652681
0.000636492
0.000617847
0.000596724
0.000573293
0.000547596
0.00051975
0.000489892
0.000458097
0.000424512
0.000389265
0.000352503
0.000314345
0.000274989
0.000234522
0.000193155
0.000151047
0.000108314
6.51898e-05
2.18323e-05
-2.16523e-05
-6.50415e-05
-0.000108177
-0.00015091
-0.000193018
-0.000234395
-0.00027482
-0.000314207
-0.000352345
-0.000389116
-0.000424374
-0.00045798
-0.000489765
-0.000519612
-0.000547448
-0.000573177
-0.000596618
-0.00061772
-0.000636365
-0.000652544
-0.00066616
-0.000677139
-0.000685461
-0.000691073
-0.000693964
-0.000694112
-0.000691518
-0.000686203
-0.000678156
-0.000667451
-0.000654089
-0.000638144
-0.000619679
-0.000598746
-0.000575432
-0.000549851
-0.00052209
-0.00049219
-0.000460405
-0.000426767
-0.000391425
-0.000354557
-0.000316219
-0.000276652
-0.000236026
-0.000194405
-0.000152
-0.000109013
-6.55815e-05
-2.1864e-05
2.16946e-05
6.50098e-05
0.000108092
0.000150698
0.000192721
0.000233972
0.000274301
0.00031354
0.000351519
0.000388068
0.000423104
0.000456477
0.000488029
0.00051759
0.000545129
0.000570498
0.000593632
0.000614374
0.000632691
0.000648488
0.000661744
0.000672364
0.000680347
0.00068561
0.000688172
0.000688024
0.000685154
0.000679585
0.000671327
0.000660463
0.000646985
0.000630944
0.000612437
0.000591515
0.000568253
0.00054281
0.000515208
0.000485593
0.000454073
0.000420785
0.000385855
0.000349401
0.000311592
0.000272565
0.000232458
0.000191472
0.000149713
0.000107383
6.4618e-05
2.16205e-05
-2.14511e-05
-6.44698e-05
-0.000107245
-0.000149565
-0.000191324
-0.00023232
-0.000272427
-0.000311433
-0.000349263
-0.000385686
-0.000420668
-0.000453946
-0.000485445
-0.00051507
-0.000542662
-0.000568126
-0.000591398
-0.00061232
-0.000630817
-0.000646837
-0.000660357
-0.000671242
-0.000679479
-0.000685027
-0.000687907
-0.000688055
-0.000685514
-0.000680231
-0.00067229
-0.00066166
-0.000648414
-0.000632596
-0.000614311
-0.000593548
-0.000570413
-0.000545087
-0.000517569
-0.000487965
-0.000456424
-0.000423082
-0.000388047
-0.000351466
-0.000313519
-0.00027428
-0.000233951
-0.000192721
-0.000150698
-0.000108071
-6.49992e-05
-2.16946e-05
2.15146e-05
6.44274e-05
0.000107128
0.000149364
0.000190995
0.000231886
0.000271866
0.000310734
0.000348363
0.000384638
0.000419355
0.000452411
0.000483656
0.000512984
0.000540248
0.000565405
0.000588307
0.00060889
0.000627027
0.000642686
0.000655794
0.000666308
0.000674249
0.000679447
0.000681989
0.000681851
0.000678992
0.000673465
0.000665302
0.000654502
0.00064114
0.000625248
0.000606899
0.000586157
0.00056315
0.000537887
0.000510539
0.000481189
0.000449976
0.000416973
0.000382361
0.000346246
0.000308765
0.000270066
0.000230372
0.000189725
0.000148368
0.000106409
6.40463e-05
2.14299e-05
-2.12817e-05
-6.38663e-05
-0.00010626
-0.00014821
-0.000189577
-0.000230224
-0.000269928
-0.000308627
-0.000346098
-0.000382213
-0.000416846
-0.000449827
-0.000481041
-0.000510401
-0.000537749
-0.000563023
-0.000586052
-0.000606793
-0.000625121
-0.000641013
-0.000654396
-0.000665186
-0.000673359
-0.000678865
-0.000681724
-0.000681872
-0.000679352
-0.000674122
-0.000666244
-0.000655709
-0.000642612
-0.000626953
-0.000608805
-0.000588222
-0.00056532
-0.000540216
-0.000512931
-0.000483603
-0.000452358
-0.000419313
-0.000384595
-0.000348342
-0.000310713
-0.000271845
-0.000231875
-0.000191006
-0.000149342
-0.000107086
-6.44274e-05
-2.1504e-05
2.13029e-05
6.38557e-05
0.000106144
0.000147998
0.000189259
0.000229758
0.000269367
0.000307886
0.000345208
0.000381101
0.000415501
0.00044826
0.000479209
0.000508252
0.000535325
0.000560206
0.000582896
0.000603278
0.000621246
0.000636757
0.000649759
0.000660177
0.000668002
0.000673158
0.000675689
0.000675551
0.000672724
0.00066725
0.000659129
0.000648446
0.00063519
0.000619446
0.000601277
0.000580715
0.000557898
0.0005329
0.000505795
0.0004767
0.000445772
0.000413098
0.000378814
0.000343017
0.000305885
0.000267578
0.000228212
0.000187957
0.000146981
0.000105424
6.34428e-05
2.12499e-05
-2.10699e-05
-6.32945e-05
-0.000105276
-0.000146812
-0.000187819
-0.000228053
-0.00026744
-0.000305747
-0.000342858
-0.000378645
-0.00041295
-0.000445656
-0.000476572
-0.000505657
-0.000532763
-0.000557782
-0.000580609
-0.00060115
-0.000619319
-0.000635084
-0.00064833
-0.000659013
-0.000667123
-0.000672608
-0.000675413
-0.000675572
-0.000673063
-0.000667875
-0.000660093
-0.000649685
-0.000636683
-0.000621182
-0.000603204
-0.000582822
-0.000560143
-0.00053523
-0.00050822
-0.000479156
-0.000448197
-0.00041547
-0.000381091
-0.000345166
-0.000307854
-0.000269346
-0.000229768
-0.000189248
-0.000147955
-0.000106112
-6.38451e-05
-2.13135e-05
2.11017e-05
6.32734e-05
0.000105149
0.0001466
0.000187501
0.000227608
0.000266837
0.000304985
0.000341947
0.000377533
0.000411605
0.000444046
0.000474709
0.000503487
0.000530274
0.000554934
0.000577422
0.000597571
0.000615391
0.000630775
0.000643629
0.000653941
0.00066167
0.000666795
0.000669294
0.000669135
0.00066635
0.000660929
0.000652893
0.000642305
0.000629155
0.000613559
0.000595559
0.000575188
0.000552583
0.000527829
0.000500978
0.000472168
0.000441527
0.00040917
0.000375183
0.000339756
0.000302984
0.000265015
0.000226041
0.000186178
0.000145563
0.000104418
6.28393e-05
2.10276e-05
-2.08582e-05
-6.2691e-05
-0.000104259
-0.000145414
-0.000186019
-0.000225872
-0.000264878
-0.000302814
-0.000339597
-0.000375056
-0.000409022
-0.000441389
-0.00047203
-0.000500819
-0.000527691
-0.000552477
-0.000575093
-0.000595454
-0.000613432
-0.000629017
-0.000642189
-0.000652766
-0.000660792
-0.000666213
-0.00066904
-0.000669198
-0.000666678
-0.000661564
-0.000653846
-0.000643554
-0.00063068
-0.000615338
-0.000597497
-0.000577316
-0.000554881
-0.000530221
-0.000503434
-0.000474656
-0.000443993
-0.000411563
-0.000377512
-0.000341926
-0.000304953
-0.000266826
-0.000227608
-0.00018747
-0.00014659
-0.000105106
-6.32522e-05
-2.11123e-05
2.09111e-05
6.26593e-05
0.000104143
0.000145181
0.000185701
0.000225448
0.000264306
0.000302052
0.000338654
0.000373902
0.000407666
0.00043979
0.000470146
0.000498669
0.000525171
0.000549619
0.000571885
0.000591833
0.000609472
0.000624697
0.000637445
0.000647652
0.000655296
0.000660368
0.000662824
0.000662666
0.000659913
0.000654534
0.000646583
0.000636069
0.000623077
0.000607619
0.000589768
0.00056963
0.000547236
0.000522683
0.000496107
0.000467594
0.000437228
0.000405178
0.00037154
0.000336452
0.00030004
0.000262443
0.000223839
0.000184357
0.000144154
0.00010338
6.22569e-05
2.08264e-05
-2.06676e-05
-6.20663e-05
-0.000103264
-0.000144017
-0.000184198
-0.00022367
-0.000262284
-0.00029986
-0.000336304
-0.000371403
-0.000405041
-0.00043709
-0.000467435
-0.00049597
-0.000522566
-0.000547099