/*--------------------------------*- C++ -*----------------------------------*\
  =========                 |
  \\      /  F ield         | OpenFOAM: The Open Source CFD Toolbox
   \\    /   O peration     | Website:  https://openfoam.org
    \\  /    A nd           | Version:  7
     \\/     M anipulation  |
\*---------------------------------------------------------------------------*/
FoamFile
{
    version     2.0;
    format      ascii;
    class       volScalarField;
    location    "0.019";
    object      gradTx;
}
// * * * * * * * * * * * * * * * * * * * * * * * * * * * * * * * * * * * * * //

dimensions      [0 -1 0 1 0 0 0];

internalField   nonuniform List<scalar> 
10000
(
0.000701804
0.00210427
0.00350311
0.00489588
0.00628004
0.00765298
0.00901201
0.0103542
0.0116766
0.0129758
0.0142486
0.0154914
0.0167002
0.0178711
0.0189997
0.0200819
0.0211127
0.0220876
0.0230015
0.0238494
0.0246261
0.0253265
0.0259454
0.0264776
0.026918
0.0272614
0.027503
0.0276379
0.0276615
0.0275694
0.0273573
0.0270215
0.0265588
0.0259667
0.0252436
0.0243891
0.0234038
0.0222899
0.0210506
0.0196903
0.0182144
0.0166288
0.0149402
0.0131563
0.011286
0.00933991
0.00733055
0.00527152
0.00317704
0.0010614
-0.0010613
-0.00317695
-0.00527144
-0.00733048
-0.00933984
-0.0112859
-0.0131562
-0.0149402
-0.0166287
-0.0182143
-0.0196902
-0.0210505
-0.0222898
-0.0234038
-0.024389
-0.0252436
-0.0259667
-0.0265588
-0.0270215
-0.0273573
-0.0275694
-0.0276615
-0.0276379
-0.027503
-0.0272614
-0.026918
-0.0264776
-0.0259454
-0.0253266
-0.0246261
-0.0238494
-0.0230015
-0.0220876
-0.0211128
-0.0200819
-0.0189998
-0.0178711
-0.0167002
-0.0154914
-0.0142487
-0.0129759
-0.0116767
-0.0103543
-0.00901213
-0.00765313
-0.00628016
-0.00489596
-0.00350315
-0.0021043
-0.000701825
0.000705949
0.00211669
0.00352386
0.00492498
0.00631755
0.00769897
0.00906651
0.0104173
0.0117484
0.0130564
0.014338
0.0155897
0.0168074
0.0179873
0.019125
0.0202161
0.0212559
0.0222395
0.0231621
0.0240184
0.0248033
0.0255116
0.026138
0.0266773
0.0271243
0.0274738
0.027721
0.0278609
0.0278888
0.0278002
0.0275908
0.0272567
0.0267944
0.0262014
0.0254757
0.0246168
0.0236254
0.0225036
0.0212549
0.0198838
0.018396
0.0167974
0.0150945
0.0132945
0.0114061
0.00943991
0.00740902
0.00532768
0.00321068
0.00107258
-0.0010725
-0.00321058
-0.00532758
-0.00740895
-0.00943987
-0.011406
-0.0132944
-0.0150944
-0.0167973
-0.0183959
-0.0198837
-0.0212548
-0.0225036
-0.0236254
-0.0246168
-0.0254757
-0.0262014
-0.0267944
-0.0272567
-0.0275908
-0.0278002
-0.0278888
-0.0278609
-0.027721
-0.0274738
-0.0271243
-0.0266773
-0.026138
-0.0255116
-0.0248033
-0.0240184
-0.0231621
-0.0222396
-0.0212559
-0.0202161
-0.0191251
-0.0179874
-0.0168075
-0.0155897
-0.0143381
-0.0130565
-0.0117485
-0.0104174
-0.00906665
-0.0076991
-0.00631767
-0.00492508
-0.00352393
-0.00211671
-0.000705938
0.000714234
0.00214158
0.00356539
0.00498321
0.00639261
0.00779098
0.00917563
0.0105437
0.0118921
0.0132177
0.0145171
0.0157866
0.0170223
0.0182203
0.019376
0.0204851
0.0215428
0.0225441
0.023484
0.0243573
0.0251587
0.0258827
0.0265242
0.0270778
0.0275381
0.0278999
0.0281583
0.0283083
0.0283449
0.0282635
0.0280597
0.0277291
0.0272679
0.0266731
0.0259424
0.0250749
0.0240712
0.0229334
0.0216655
0.0202726
0.0187609
0.0171364
0.0154053
0.0135734
0.0116486
0.00964177
0.007567
0.00544038
0.00327801
0.00109494
-0.00109486
-0.00327792
-0.00544029
-0.00756691
-0.00964171
-0.0116486
-0.0135734
-0.0154052
-0.0171364
-0.0187608
-0.0202726
-0.0216655
-0.0229334
-0.0240711
-0.0250748
-0.0259424
-0.0266731
-0.0272679
-0.0277291
-0.0280597
-0.0282635
-0.0283449
-0.0283083
-0.0281583
-0.0278999
-0.0275381
-0.0270778
-0.0265242
-0.0258828
-0.0251587
-0.0243573
-0.023484
-0.0225442
-0.0215428
-0.0204851
-0.0193761
-0.0182203
-0.0170224
-0.0157867
-0.0145172
-0.0132178
-0.0118922
-0.0105438
-0.00917574
-0.00779111
-0.00639274
-0.00498332
-0.00356548
-0.00214163
-0.000714245
0.000726696
0.00217898
0.00362778
0.00507073
0.00650541
0.00792927
0.00933958
0.0107336
0.0121082
0.0134603
0.0147864
0.0160828
0.0173456
0.0185707
0.0197537
0.02089
0.0219747
0.0230027
0.0239689
0.0248678
0.025694
0.026442
0.0271063
0.0276814
0.0281618
0.0285423
0.0288177
0.0289829
0.0290329
0.0289627
0.0287675
0.0284427
0.0279837
0.0273868
0.0266488
0.0257685
0.0247461
0.023584
0.0222866
0.0208602
0.0193121
0.0176495
0.0158771
0.0139985
0.0120189
0.00994923
0.00780641
0.00561007
0.00337882
0.00112833
-0.00112824
-0.00337873
-0.00561002
-0.00780634
-0.00994917
-0.0120189
-0.0139985
-0.015877
-0.0176494
-0.019312
-0.0208601
-0.0222865
-0.0235839
-0.0247461
-0.0257685
-0.0266488
-0.0273867
-0.0279837
-0.0284427
-0.0287676
-0.0289627
-0.0290328
-0.0289829
-0.0288177
-0.0285423
-0.0281618
-0.0276814
-0.0271063
-0.0264421
-0.0256941
-0.0248678
-0.0239689
-0.0230027
-0.0219747
-0.0208901
-0.0197538
-0.0185708
-0.0173457
-0.0160828
-0.0147864
-0.0134604
-0.0121083
-0.0107337
-0.0093397
-0.00792937
-0.00650553
-0.00507084
-0.00362787
-0.00217903
-0.000726723
0.00074333
0.00222892
0.00371117
0.0051877
0.00665616
0.00811406
0.00955877
0.0109875
0.0123972
0.0137847
0.0151466
0.0164791
0.0177783
0.0190399
0.0202596
0.0214324
0.0225534
0.0236175
0.024619
0.0255525
0.0264122
0.0271925
0.0278875
0.0284916
0.0289992
0.0294048
0.0297031
0.029889
0.0299571
0.0299025
0.0297198
0.0294036
0.0289486
0.0283498
0.027603
0.0267059
0.0256583
0.0244626
0.0231241
0.0216511
0.0200537
0.0183412
0.0165172
0.0145792
0.0125261
0.0103686
0.0081297
0.00583657
0.00351199
0.00117218
-0.00117209
-0.00351191
-0.0058365
-0.00812964
-0.0103685
-0.0125261
-0.0145791
-0.0165171
-0.0183411
-0.0200536
-0.021651
-0.0231241
-0.0244625
-0.0256582
-0.0267059
-0.027603
-0.0283498
-0.0289486
-0.0294036
-0.0297198
-0.0299025
-0.0299571
-0.029889
-0.0297032
-0.0294048
-0.0289992
-0.0284916
-0.0278875
-0.0271925
-0.0264123
-0.0255525
-0.024619
-0.0236175
-0.0225535
-0.0214324
-0.0202596
-0.01904
-0.0177783
-0.0164791
-0.0151466
-0.0137848
-0.0123973
-0.0109876
-0.00955889
-0.00811418
-0.00665627
-0.00518779
-0.00371123
-0.002229
-0.000743367
0.000764188
0.00229154
0.00381565
0.0053343
0.00684514
0.00834576
0.00983362
0.0113059
0.0127597
0.0141918
0.0155987
0.0169767
0.0183217
0.0196295
0.0208954
0.0221144
0.0232815
0.0243911
0.0254375
0.0264148
0.0273171
0.0281383
0.0288723
0.0295133
0.0300552
0.0304926
0.03082
0.0310321
0.0311236
0.0310893
0.0309233
0.0306196
0.0301716
0.0295724
0.0288162
0.0278987
0.0268189
0.0255795
0.0241866
0.0226507
0.0209884
0.0192158
0.0173353
0.0153314
0.0131864
0.0109093
0.00853876
0.00611704
0.00367402
0.00122497
-0.0012249
-0.00367392
-0.00611696
-0.00853871
-0.0109092
-0.0131864
-0.0153314
-0.0173352
-0.0192157
-0.0209883
-0.0226506
-0.0241865
-0.0255795
-0.0268189
-0.0278987
-0.0288162
-0.0295724
-0.0301716
-0.0306197
-0.0309234
-0.0310893
-0.0311236
-0.0310321
-0.03082
-0.0304926
-0.0300552
-0.0295133
-0.0288724
-0.0281383
-0.0273171
-0.0264148
-0.0254375
-0.0243911
-0.0232815
-0.0221145
-0.0208954
-0.0196295
-0.0183218
-0.0169767
-0.0155987
-0.0141919
-0.0127598
-0.011306
-0.00983374
-0.00834589
-0.00684524
-0.00533439
-0.00381572
-0.00229159
-0.000764225
0.000789313
0.00236691
0.00394144
0.00551079
0.00707269
0.00862482
0.0101647
0.0116896
0.0131966
0.0146826
0.016144
0.017577
0.0189777
0.0203414
0.0216634
0.0229388
0.0241619
0.025327
0.0264282
0.0274591
0.0284135
0.0292847
0.0300664
0.0307522
0.0313361
0.0318122
0.0321749
0.0324191
0.0325394
0.0325306
0.0323866
0.0321006
0.0316641
0.0310681
0.0303032
0.0293626
0.0282437
0.0269494
0.0254859
0.0238644
0.0221145
0.0202724
0.0183435
0.0162839
0.0140294
0.0115854
0.0090318
0.00644229
0.00385618
0.00128334
-0.00128327
-0.00385608
-0.00644221
-0.00903175
-0.0115853
-0.0140294
-0.0162839
-0.0183435
-0.0202724
-0.0221144
-0.0238644
-0.0254859
-0.0269494
-0.0282436
-0.0293626
-0.0303032
-0.031068
-0.0316641
-0.0321006
-0.0323867
-0.0325306
-0.0325394
-0.032419
-0.0321749
-0.0318122
-0.0313361
-0.0307522
-0.0300664
-0.0292847
-0.0284135
-0.0274592
-0.0264282
-0.0253271
-0.0241619
-0.0229388
-0.0216635
-0.0203414
-0.0189777
-0.0175771
-0.016144
-0.0146827
-0.0131967
-0.0116897
-0.0101648
-0.00862492
-0.00707278
-0.00551087
-0.00394152
-0.00236696
-0.000789334
0.000818705
0.00245516
0.00408873
0.00571744
0.00733917
0.0089517
0.0105527
0.0121394
0.0137089
0.0152582
0.0167838
0.0182818
0.019748
0.0211779
0.0225665
0.0239085
0.0251982
0.0264295
0.0275959
0.0286907
0.0297071
0.030638
0.0314765
0.0322158
0.0328495
0.0333713
0.0337759
0.0340579
0.0342125
0.0342348
0.034119
0.0338574
0.0334398
0.0328533
0.0320836
0.0311186
0.0299529
0.0285924
0.0270414
0.0252983
0.0234176
0.0214937
0.0195527
0.0174934
0.0151154
0.0124151
0.00959525
0.00678873
0.00403969
0.00134036
-0.0013403
-0.0040396
-0.00678865
-0.00959519
-0.0124151
-0.0151154
-0.0174934
-0.0195527
-0.0214936
-0.0234176
-0.0252983
-0.0270413
-0.0285924
-0.0299529
-0.0311186
-0.0320835
-0.0328533
-0.0334398
-0.0338574
-0.034119
-0.0342348
-0.0342125
-0.0340578
-0.0337759
-0.0333714
-0.0328495
-0.0322159
-0.0314765
-0.030638
-0.0297071
-0.0286907
-0.0275959
-0.0264295
-0.0251982
-0.0239085
-0.0225665
-0.0211779
-0.019748
-0.0182818
-0.0167838
-0.0152583
-0.013709
-0.0121394
-0.0105527
-0.0089518
-0.00733927
-0.00571753
-0.0040888
-0.00245519
-0.00081871
0.000852417
0.00255638
0.00425772
0.00595458
0.00764504
0.00932698
0.0109981
0.0126559
0.0142976
0.01592
0.0175197
0.0190928
0.020635
0.0221416
0.0236076
0.0250273
0.0263946
0.0277031
0.0289459
0.0301157
0.0312049
0.0322059
0.033111
0.0339129
0.0346045
0.0351796
0.0356322
0.0359576
0.0361517
0.0362107
0.0361299
0.0359016
0.0355137
0.0349485
0.0341828
0.0331949
0.0319717
0.0305354
0.0288922
0.0269663
0.0248533
0.0228135
0.0209543
0.0190877
0.0165809
0.0134112
0.0101816
0.00710336
0.00418879
0.00138377
-0.00138369
-0.00418873
-0.0071033
-0.0101815
-0.0134111
-0.0165808
-0.0190876
-0.0209543
-0.0228134
-0.0248532
-0.0269662
-0.0288921
-0.0305353
-0.0319716
-0.0331949
-0.0341828
-0.0349485
-0.0355137
-0.0359016
-0.0361299
-0.0362108
-0.0361517
-0.0359576
-0.0356322
-0.0351796
-0.0346046
-0.0339129
-0.033111
-0.0322059
-0.0312049
-0.0301157
-0.028946
-0.0277032
-0.0263946
-0.0250273
-0.0236076
-0.0221416
-0.020635
-0.0190928
-0.0175197
-0.0159201
-0.0142977
-0.012656
-0.0109982
-0.00932707
-0.00764512
-0.00595467
-0.00425778
-0.00255641
-0.000852417
0.000890496
0.00267072
0.00444861
0.00622253
0.00799069
0.00975118
0.0115019
0.0132403
0.0149638
0.0166693
0.0183533
0.020012
0.021641
0.0232355
0.0247901
0.026299
0.0277558
0.0291535
0.0304846
0.0317411
0.0329149
0.0339971
0.0349795
0.0358538
0.0366122
0.0372479
0.037755
0.0381288
0.0383665
0.0384668
0.0384277
0.0382437
0.0379014
0.0373779
0.0366347
0.035633
0.034325
0.032801
0.0311349
0.0289232
0.0263097
0.0240385
0.022442
0.0213935
0.0187711
0.0145173
0.0106547
0.00728102
0.00424412
0.00139479
-0.0013947
-0.00424406
-0.00728097
-0.0106547
-0.0145173
-0.018771
-0.0213935
-0.022442
-0.0240385
-0.0263096
-0.0289232
-0.0311349
-0.032801
-0.0343249
-0.035633
-0.0366346
-0.0373779
-0.0379014
-0.0382437
-0.0384277
-0.0384668
-0.0383665
-0.0381288
-0.037755
-0.037248
-0.0366122
-0.0358538
-0.0349795
-0.0339972
-0.0329149
-0.0317412
-0.0304846
-0.0291535
-0.0277558
-0.026299
-0.0247901
-0.0232355
-0.021641
-0.020012
-0.0183534
-0.0166694
-0.0149639
-0.0132404
-0.0115019
-0.00975126
-0.00799076
-0.0062226
-0.00444867
-0.00267075
-0.000890496
0.000932975
0.0027983
0.00466163
0.00652156
0.00837655
0.0102249
0.0120646
0.0138934
0.0157087
0.0175075
0.0192865
0.0210417
0.0227687
0.0244625
0.0261177
0.027728
0.0292867
0.0307863
0.0322187
0.033575
0.0348461
0.0360221
0.0370934
0.0380507
0.0388854
0.0395898
0.0401575
0.0405835
0.0408666
0.04101
0.0410177
0.0408902
0.0406144
0.0401688
0.0394836
0.0385121
0.0370234
0.035332
0.0340399
0.0313904
0.0275221
0.0246787
0.0234653
0.0253523
0.0226617
0.0152859
0.0106786
0.00714905
0.00412778
0.00135119
-0.00135113
-0.00412771
-0.007149
-0.0106786
-0.0152858
-0.0226616
-0.0253523
-0.0234653
-0.0246787
-0.027522
-0.0313904
-0.0340399
-0.035332
-0.0370233
-0.038512
-0.0394836
-0.0401688
-0.0406144
-0.0408902
-0.0410177
-0.04101
-0.0408665
-0.0405835
-0.0401575
-0.0395899
-0.0388854
-0.0380507
-0.0370935
-0.0360221
-0.0348461
-0.0335751
-0.0322187
-0.0307863
-0.0292867
-0.027728
-0.0261177
-0.0244625
-0.0227687
-0.0210417
-0.0192865
-0.0175075
-0.0157087
-0.0138934
-0.0120646
-0.010225
-0.00837662
-0.00652162
-0.00466168
-0.00279832
-0.000932991
0.00097989
0.0029392
0.00489696
0.00685198
0.00880304
0.0107486
0.0126869
0.014616
0.0165334
0.0184361
0.0203209
0.0221839
0.0240206
0.0258259
0.0275941
0.0293188
0.0309928
0.0326081
0.0341558
0.0356263
0.0370089
0.0382926
0.0394659
0.0405181
0.0414393
0.0422213
0.0428561
0.0433367
0.0436624
0.0438452
0.0438986
0.0438398
0.0436505
0.0433504
0.0427668
0.0420521
0.0400624
0.0375953
0.0384284
0.0351928
0.0278118
0.0237806
0.0214749
0.0201608
0.0174995
0.013342
0.00966438
0.00653539
0.00378213
0.0012384
-0.00123837
-0.00378207
-0.00653534
-0.00966431
-0.0133419
-0.0174994
-0.0201608
-0.0214749
-0.0237806
-0.0278117
-0.0351928
-0.0384283
-0.0375953
-0.0400623
-0.0420521
-0.0427668
-0.0433504
-0.0436505
-0.0438398
-0.0438986
-0.0438453
-0.0436624
-0.0433367
-0.0428562
-0.0422213
-0.0414393
-0.0405181
-0.0394659
-0.0382926
-0.0370089
-0.0356263
-0.0341558
-0.0326081
-0.0309928
-0.0293189
-0.0275942
-0.0258259
-0.0240206
-0.0221839
-0.020321
-0.0184361
-0.0165334
-0.014616
-0.012687
-0.0107487
-0.00880309
-0.00685205
-0.004897
-0.00293923
-0.000979901
0.00103128
0.00309354
0.00515475
0.00721405
0.00927047
0.0113228
0.0133696
0.0154091
0.0174389
0.0194564
0.0214584
0.0234409
0.0253995
0.0273289
0.0292234
0.0310762
0.0328797
0.0346254
0.0363039
0.0379043
0.0394147
0.0408219
0.0421122
0.0432724
0.0442917
0.0451616
0.0458726
0.0464097
0.0467667
0.0469756
0.0470571
0.0470843
0.0469607
0.0469768
0.0463397
0.0470227
0.0437265
0.0366972
0.0332059
0.0294495
0.0248545
0.0212452
0.0185724
0.0163907
0.0138976
0.0109675
0.00813736
0.0055704
0.00324108
0.00106331
-0.00106327
-0.00324104
-0.00557035
-0.0081373
-0.0109675
-0.0138975
-0.0163907
-0.0185724
-0.0212452
-0.0248544
-0.0294494
-0.0332059
-0.0366971
-0.0437265
-0.0470227
-0.0463397
-0.0469768
-0.0469607
-0.0470843
-0.047057
-0.0469757
-0.0467667
-0.0464097
-0.0458726
-0.0451616
-0.0442917
-0.0432724
-0.0421122
-0.0408219
-0.0394148
-0.0379044
-0.0363039
-0.0346254
-0.0328797
-0.0310762
-0.0292234
-0.027329
-0.0253995
-0.0234409
-0.0214584
-0.0194565
-0.017439
-0.0154091
-0.0133697
-0.0113229
-0.00927051
-0.00721409
-0.00515478
-0.00309356
-0.00103129
0.00108717
0.00326141
0.00543514
0.00760791
0.00977911
0.0119479
0.0141132
0.0162733
0.0184264
0.0205698
0.0227005
0.0248147
0.0269079
0.0289748
0.0310094
0.0330047
0.0349529
0.0368451
0.0386712
0.0404194
0.042076
0.0436254
0.0450501
0.0463333
0.0474624
0.0484323
0.0492367
0.0498377
0.050195
0.0504096
0.0504453
0.0506549
0.0503052
0.0514297
0.0487629
0.0423243
0.0374635
0.032396
0.028371
0.0246534
0.0210036
0.0178524
0.0152481
0.012993
0.0107842
0.00853411
0.00637753
0.00438875
0.00256068
0.000841014
-0.000840993
-0.00256064
-0.00438869
-0.0063775
-0.00853405
-0.0107841
-0.012993
-0.0152481
-0.0178524
-0.0210036
-0.0246534
-0.028371
-0.032396
-0.0374635
-0.0423243
-0.0487629
-0.0514297
-0.0503051
-0.0506548
-0.0504453
-0.0504096
-0.050195
-0.0498377
-0.0492367
-0.0484324
-0.0474624
-0.0463333
-0.0450501
-0.0436254
-0.042076
-0.0404194
-0.0386712
-0.0368452
-0.0349529
-0.0330047
-0.0310094
-0.0289748
-0.0269079
-0.0248147
-0.0227005
-0.0205698
-0.0184264
-0.0162734
-0.0141132
-0.011948
-0.00977916
-0.00760794
-0.00543517
-0.00326141
-0.00108718
0.00114755
0.00344277
0.00573818
0.00803371
0.0103292
0.0126242
0.014918
0.0172093
0.0194965
0.0217773
0.0240488
0.0263073
0.0285483
0.0307666
0.0329559
0.035109
0.037218
0.0392738
0.0412657
0.0431815
0.045006
0.0467202
0.0483011
0.0497239
0.0509717
0.0520512
0.0529888
0.0536959
0.053953
0.0542096
0.0538463
0.0549713
0.0523601
0.0460417
0.0413157
0.0362034
0.0315449
0.0271721
0.023334
0.0198814
0.0167327
0.0139799
0.0116319
0.00959805
0.00775263
0.00603943
0.00447418
0.00306306
0.00178163
0.000584278
-0.000584246
-0.00178161
-0.00306302
-0.00447413
-0.00603937
-0.00775258
-0.009598
-0.0116319
-0.0139799
-0.0167326
-0.0198813
-0.023334
-0.0271721
-0.0315449
-0.0362034
-0.0413157
-0.0460416
-0.05236
-0.0549713
-0.0538463
-0.0542096
-0.0539531
-0.0536959
-0.0529888
-0.0520512
-0.0509717
-0.0497239
-0.0483011
-0.0467202
-0.045006
-0.0431815
-0.0412657
-0.0392738
-0.0372181
-0.035109
-0.0329559
-0.0307666
-0.0285484
-0.0263073
-0.0240488
-0.0217774
-0.0194966
-0.0172094
-0.0149181
-0.0126243
-0.0103293
-0.00803373
-0.0057382
-0.0034428
-0.00114757
0.00121246
0.00363769
0.00606385
0.00849145
0.0109207
0.0133518
0.0157843
0.0182175
0.02065
0.0230799
0.0255046
0.0279204
0.0303231
0.0327072
0.0350665
0.0373935
0.0396802
0.0419173
0.0440946
0.0461999
0.0482175
0.0501256
0.0518925
0.0534769
0.0548404
0.0560063
0.0571687
0.0582032
0.057911
0.0588289
0.0559567
0.0494047
0.044493
0.0392298
0.0344067
0.0297621
0.0254577
0.0215147
0.017999
0.0148802
0.0121291
0.00975584
0.00774623
0.00605149
0.0046188
0.00342019
0.00243412
0.00161968
0.000925553
0.000300998
-0.000300972
-0.000925521
-0.00161965
-0.00243409
-0.00342015
-0.00461875
-0.00605144
-0.00774617
-0.00975578
-0.012129
-0.0148802
-0.017999
-0.0215147
-0.0254576
-0.0297621
-0.0344067
-0.0392298
-0.044493
-0.0494047
-0.0559567
-0.0588289
-0.057911
-0.0582032
-0.0571688
-0.0560063
-0.0548404
-0.0534769
-0.0518926
-0.0501256
-0.0482175
-0.0461999
-0.0440946
-0.0419173
-0.0396802
-0.0373936
-0.0350665
-0.0327072
-0.0303231
-0.0279204
-0.0255046
-0.0230799
-0.02065
-0.0182175
-0.0157843
-0.0133518
-0.0109208
-0.00849147
-0.00606388
-0.00363769
-0.00121246
0.00128182
0.00384605
0.00641208
0.008981
0.0115536
0.0141306
0.0167121
0.0192979
0.021887
0.0244781
0.0270686
0.0296555
0.0322342
0.0347995
0.0373447
0.0398623
0.042344
0.0447808
0.0471633
0.0494812
0.0517208
0.0538606
0.0558613
0.0576503
0.0591106
0.0601725
0.0616875
0.0642511
0.0608711
0.0536328
0.0481307
0.0423789
0.0371408
0.0321225
0.0274467
0.0230917
0.0191042
0.0155113
0.0123356
0.0095683
0.00719462
0.00520625
0.00357632
0.00226716
0.00126965
0.000602521
0.000232627
6.28181e-05
3.83812e-06
-3.5893e-06
3.62107e-06
-3.82224e-06
-6.2781e-05
-0.00023259
-0.000602473
-0.00126961
-0.00226709
-0.00357626
-0.0052062
-0.00719458
-0.00956826
-0.0123356
-0.0155113
-0.0191042
-0.0230916
-0.0274467
-0.0321225
-0.0371408
-0.0423789
-0.0481307
-0.0536328
-0.0608711
-0.0642511
-0.0616875
-0.0601725
-0.0591106
-0.0576503
-0.0558613
-0.0538606
-0.0517209
-0.0494812
-0.0471633
-0.0447808
-0.042344
-0.0398623
-0.0373447
-0.0347995
-0.0322342
-0.0296555
-0.0270687
-0.0244781
-0.021887
-0.0192979
-0.0167121
-0.0141306
-0.0115537
-0.00898102
-0.0064121
-0.00384605
-0.00128181
0.00135559
0.00406774
0.00678266
0.00950209
0.0122276
0.0149602
0.017701
0.0204502
0.0232076
0.025972
0.0287416
0.0315134
0.0342832
0.0370456
0.0397937
0.0425195
0.0452141
0.0478685
0.050475
0.0530271
0.055518
0.0579359
0.0602492
0.0623661
0.0639973
0.0641067
0.0653833
0.0626561
0.0540908
0.0468964
0.0407312
0.0349954
0.0297062
0.0247924
0.0202688
0.0161407
0.012429
0.0091504
0.006312
0.0039009
0.00190418
0.000320194
-0.000898607
-0.00181809
-0.00240301
-0.00250831
-0.00216661
-0.00160357
-0.000968757
-0.000322603
0.00032264
0.000968789
0.0016036
0.00216665
0.00250836
0.00240306
0.00181814
0.000898649
-0.000320157
-0.00190414
-0.00390086
-0.00631197
-0.00915036
-0.0124289
-0.0161407
-0.0202688
-0.0247924
-0.0297062
-0.0349954
-0.0407312
-0.0468964
-0.0540909
-0.0626561
-0.0653833
-0.0641067
-0.0639974
-0.0623662
-0.0602492
-0.057936
-0.055518
-0.0530271
-0.0504751
-0.0478686
-0.0452141
-0.0425195
-0.0397937
-0.0370456
-0.0342832
-0.0315134
-0.0287416
-0.025972
-0.0232076
-0.0204502
-0.0177011
-0.0149603
-0.0122276
-0.00950212
-0.00678266
-0.00406772
-0.00135559
0.00143376
0.00430258
0.00717527
0.0100543
0.012942
0.0158402
0.0187505
0.021674
0.024611
0.0275612
0.0305233
0.0334946
0.0364713
0.0394478
0.0424168
0.0453694
0.0482953
0.0511847
0.0540308
0.0568322
0.0595949
0.0623307
0.0650558
0.0677968
0.07064
0.0671074
0.0595002
0.0533066
0.0461373
0.039303
0.0330525
0.0272953
0.0220072
0.0171657
0.0127727
0.00883578
0.0053696
0.00238638
-0.000112142
-0.00216304
-0.00378853
-0.00492649
-0.00567301
-0.00624165
-0.00656146
-0.0060731
-0.00479341
-0.00334636
-0.00195547
-0.000641649
0.000641659
0.00195552
0.0033464
0.00479344
0.00607313
0.0065615
0.0062417
0.00567305
0.00492654
0.00378858
0.00216306
0.000112168
-0.00238634
-0.00536956
-0.00883575
-0.0127727
-0.0171657
-0.0220072
-0.0272953
-0.0330525
-0.039303
-0.0461373
-0.0533066
-0.0595002
-0.0671074
-0.0706401
-0.0677968
-0.0650558
-0.0623307
-0.0595949
-0.0568323
-0.0540308
-0.0511848
-0.0482953
-0.0453694
-0.0424168
-0.0394478
-0.0364713
-0.0334946
-0.0305233
-0.0275612
-0.024611
-0.021674
-0.0187505
-0.0158402
-0.012942
-0.0100543
-0.00717527
-0.00430255
-0.00143374
0.00151617
0.00455028
0.00758949
0.0106371
0.0136961
0.0167694
0.0198594
0.022968
0.0260962
0.0292447
0.0324128
0.0355986
0.0387986
0.0420074
0.0452171
0.0484171
0.0515946
0.0547361
0.0578327
0.0608872
0.063919
0.0669653
0.0700847
0.0733719
0.0700945
0.0606059
0.0524201
0.0451276
0.0380183
0.0312709
0.0250038
0.0192285
0.0139455
0.00915676
0.00487095
0.0010965
-0.00214888
-0.00484938
-0.00698012
-0.00865607
-0.0099786
-0.0105788
-0.0106424
-0.0109335
-0.011549
-0.0104487
-0.00760303
-0.00504378
-0.00287146
-0.000932229
0.00093225
0.00287152
0.00504383
0.00760304
0.0104487
0.011549
0.0109336
0.0106424
0.0105789
0.00997866
0.0086561
0.00698015
0.0048494
0.00214893
-0.00109646
-0.00487095
-0.00915676
-0.0139455
-0.0192285
-0.0250038
-0.0312709
-0.0380184
-0.0451276
-0.0524201
-0.0606059
-0.0700945
-0.0733719
-0.0700847
-0.0669654
-0.063919
-0.0608873
-0.0578327
-0.0547361
-0.0515946
-0.0484171
-0.0452171
-0.0420074
-0.0387986
-0.0355986
-0.0324128
-0.0292447
-0.0260962
-0.022968
-0.0198594
-0.0167695
-0.0136961
-0.0106371
-0.00758948
-0.00455026
-0.00151617
0.00160278
0.00481051
0.00802469
0.0112495
0.014489
0.0177468
0.0210264
0.0243305
0.0276614
0.0310206
0.0344084
0.0378239
0.0412644
0.0447249
0.0481973
0.0516691
0.0551225
0.0585358
0.061891
0.0651894
0.068463
0.0717715
0.0752005
0.0719567
0.0621934
0.0530218
0.0446383
0.0369311
0.0296782
0.0228752
0.0165578
0.0107433
0.00544454
0.000682724
-0.00351968
-0.00716309
-0.0102152
-0.0126676
-0.0143235
-0.0155293
-0.0169228
-0.016802
-0.015419
-0.0153371
-0.0182905
-0.0166047
-0.0101515
-0.00637111
-0.00356399
-0.00115116
0.00115118
0.00356402
0.00637115
0.0101516
0.0166047
0.0182906
0.0153372
0.015419
0.016802
0.0169229
0.0155294
0.0143236
0.0126677
0.0102152
0.0071631
0.00351967
-0.000682724
-0.00544454
-0.0107433
-0.0165578
-0.0228752
-0.0296782
-0.0369311
-0.0446384
-0.0530218
-0.0621935
-0.0719568
-0.0752005
-0.0717715
-0.068463
-0.0651895
-0.061891
-0.0585359
-0.0551225
-0.051669
-0.0481973
-0.0447249
-0.0412644
-0.0378238
-0.0344084
-0.0310206
-0.0276614
-0.0243305
-0.0210264
-0.0177468
-0.014489
-0.0112495
-0.00802469
-0.00481047
-0.00160277
0.00169338
0.00508282
0.00848019
0.0118907
0.0153192
0.0187707
0.0222494
0.0257594
0.029304
0.032886
0.0365069
0.0401673
0.0438657
0.0475987
0.0513586
0.055132
0.0588951
0.0626102
0.0662337
0.0697553
0.0732214
0.0767174
0.07344
0.0635006
0.0539262
0.0448428
0.0363444
0.0284169
0.0209993
0.0140808
0.00767333
0.00178609
-0.00356873
-0.00834314
-0.0124768
-0.0160345
-0.0189129
-0.0213229
-0.0221637
-0.0222661
-0.0254377
-0.0243435
-0.0189461
-0.0167572
-0.0159132
-0.0137641
-0.0100617
-0.00674672
-0.00387428
-0.00126353
0.00126357
0.00387432
0.00674678
0.0100618
0.0137641
0.0159132
0.0167572
0.0189462
0.0243435
0.0254377
0.0222661
0.0221637
0.021323
0.0189129
0.0160345
0.0124767
0.00834314
0.00356875
-0.0017861
-0.00767335
-0.0140808
-0.0209993
-0.0284169
-0.0363444
-0.0448428
-0.0539262
-0.0635006
-0.07344
-0.0767175
-0.0732215
-0.0697553
-0.0662337
-0.0626102
-0.0588951
-0.055132
-0.0513586
-0.0475986
-0.0438657
-0.0401672
-0.0365069
-0.0328859
-0.029304
-0.0257594
-0.0222494
-0.0187707
-0.0153192
-0.0118907
-0.00848019
-0.0050828
-0.00169337
0.00178783
0.0053667
0.00895512
0.0125593
0.0161853
0.019839
0.0235261
0.0272517
0.0310206
0.0348369
0.0387038
0.0426237
0.0465972
0.0506232
0.0546975
0.0588095
0.0629329
0.0670059
0.0709204
0.0746303
0.0782151
0.0748931
0.0647859
0.0549092
0.0453642
0.0362433
0.0276138
0.0194993
0.0119014
0.00483078
-0.00169863
-0.00769184
-0.0131699
-0.0180343
-0.022049
-0.0256373
-0.0281414
-0.0316186
-0.0308166
-0.0260088
-0.0244845
-0.0224508
-0.0193293
-0.0168895
-0.0148953
-0.0125237
-0.00961899
-0.00670291
-0.00393618
-0.0012966
0.00129663
0.00393623
0.00670295
0.009619
0.0125237
0.0148953
0.0168895
0.0193293
0.0224509
0.0244845
0.0260089
0.0308166
0.0316187
0.0281415
0.0256373
0.0220489
0.0180342
0.0131699
0.00769184
0.00169862
-0.00483078
-0.0119014
-0.0194993
-0.0276138
-0.0362433
-0.0453642
-0.0549092
-0.064786
-0.0748931
-0.0782151
-0.0746303
-0.0709204
-0.0670059
-0.0629329
-0.0588095
-0.0546975
-0.0506232
-0.0465971
-0.0426236
-0.0387038
-0.0348368
-0.0310206
-0.0272517
-0.0235261
-0.019839
-0.0161853
-0.0125593
-0.00895511
-0.00536669
-0.00178783
0.00188595
0.00566161
0.00944849
0.013254
0.0170853
0.0209495
0.0248536
0.028804
0.032807
0.0368684
0.0409933
0.045186
0.0494499
0.0537875
0.0582011
0.0626922
0.0672517
0.0718047
0.0760692
0.0798999
0.0765768
0.0663029
0.0561355
0.0461856
0.0365439
0.0272864
0.0184717
0.0101399
0.00232368
-0.00493786
-0.0116075
-0.0177069
-0.0234263
-0.0286339
-0.0321207
-0.0364104
-0.0364919
-0.0324808
-0.02976
-0.026557
-0.0241243
-0.0217232
-0.0190972
-0.0166345
-0.0143061
-0.0118597
-0.00922086
-0.00653297
-0.00388464
-0.00128778
0.00128782
0.00388466
0.00653301
0.00922087
0.0118598
0.0143061
0.0166345
0.0190973
0.0217232
0.0241243
0.026557
0.02976
0.0324808
0.0364919
0.0364104
0.0321207
0.0286339
0.0234262
0.0177069
0.0116075
0.00493785
-0.0023237
-0.0101399
-0.0184717
-0.0272864
-0.036544
-0.0461856
-0.0561355
-0.066303
-0.0765768
-0.0799
-0.0760692
-0.0718047
-0.0672517
-0.0626921
-0.058201
-0.0537875
-0.0494499
-0.0451859
-0.0409932
-0.0368683
-0.032807
-0.028804
-0.0248536
-0.0209495
-0.0170853
-0.013254
-0.00944849
-0.00566161
-0.00188595
0.0019875
0.00596685
0.0099592
0.0139732
0.0180172
0.0220996
0.0262287
0.0304124
0.0346585
0.0389747
0.0433681
0.0478454
0.0524124
0.0570747
0.0618411
0.0667359
0.0718221
0.0771523
0.0819262
0.0787903
0.0683438
0.0578455
0.0474709
0.0373223
0.0274743
0.0179886
0.00891741
0.000306181
-0.00779511
-0.0153107
-0.0221223
-0.0281598
-0.0342722
-0.0410508
-0.0414983
-0.0376956
-0.0352395
-0.0321639
-0.0292881
-0.0264265
-0.023816
-0.0212957
-0.0187684
-0.016303
-0.0138847
-0.0114297
-0.00890395
-0.00634635
-0.00379522
-0.00126222
0.00126225
0.00379524
0.00634637
0.00890397
0.0114298
0.0138847
0.016303
0.0187684
0.0212957
0.023816
0.0264265
0.0292881
0.0321639
0.0352396
0.0376956
0.0414983
0.0410508
0.0342722
0.0281598
0.0221224
0.0153106
0.0077951
-0.000306202
-0.00891743
-0.0179886
-0.0274743
-0.0373224
-0.047471
-0.0578456
-0.0683438
-0.0787903
-0.0819262
-0.0771523
-0.0718221
-0.0667359
-0.0618411
-0.0570746
-0.0524123
-0.0478453
-0.043368
-0.0389746
-0.0346585
-0.0304123
-0.0262287
-0.0220996
-0.0180172
-0.0139732
-0.00995921
-0.00596685
-0.0019875
0.00209225
0.0062817
0.0104861
0.0147151
0.0189787
0.0232864
0.0276479
0.0320725
0.0365698
0.0411492
0.0458204
0.0505923
0.055473
0.0604675
0.065579
0.0708311
0.0764087
0.0833341
0.0821664
0.0714533
0.0604084
0.0494737
0.0387532
0.0282957
0.0181447
0.0083451
-0.00106001
-0.0100312
-0.0185221
-0.0264363
-0.0334848
-0.0386323
-0.044568
-0.0461189
-0.041448
-0.0377635
-0.0347284
-0.0317586
-0.0289036
-0.0261371
-0.0235007
-0.0209499
-0.0184435
-0.0159818
-0.0135489
-0.0111109
-0.00865031
-0.00617567
-0.00370106
-0.00123259
0.00123263
0.00370108
0.00617568
0.00865033
0.0111109
0.0135489
0.0159819
0.0184436
0.0209499
0.0235008
0.0261371
0.0289036
0.0317587
0.0347284
0.0377635
0.0414481
0.0461189
0.044568
0.0386323
0.0334848
0.0264363
0.0185221
0.0100312
0.00105999
-0.00834513
-0.0181448
-0.0282958
-0.0387533
-0.0494737
-0.0604084
-0.0714534
-0.0821664
-0.0833341
-0.0764087
-0.0708311
-0.065579
-0.0604674
-0.0554729
-0.0505923
-0.0458203
-0.0411492
-0.0365697
-0.0320724
-0.0276478
-0.0232864
-0.0189787
-0.0147151
-0.0104861
-0.0062817
-0.00209223
0.0021999
0.00660537
0.0110277
0.0154781
0.0199675
0.024507
0.0291074
0.0337798
0.0385351
0.043385
0.0483415
0.0534172
0.0586234
0.0639642
0.0694151
0.0748572
0.0799225
0.0840873
0.0784254
0.0647046
0.0525807
0.0410671
0.0299145
0.0190676
0.00853304
-0.00165832
-0.0114701
-0.0208793
-0.0298862
-0.0385164
-0.0468615
-0.0484485
-0.0455811
-0.043747
-0.0405547
-0.0373131
-0.0342727
-0.0313497
-0.0285322
-0.0258094
-0.023183
-0.0206336
-0.0181395
-0.0156886
-0.0132662
-0.0108543
-0.00844155
-0.00602698
-0.00361396
-0.00120413
0.00120417
0.00361399
0.00602699
0.00844156
0.0108544
0.0132663
0.0156887
0.0181396
0.0206337
0.023183
0.0258094
0.0285322
0.0313497
0.0342727
0.0373131
0.0405547
0.043747
0.0455811
0.0484485
0.0468615
0.0385164
0.0298862
0.0208793
0.0114701
0.0016583
-0.00853305
-0.0190676
-0.0299145
-0.0410671
-0.0525807
-0.0647047
-0.0784254
-0.0840873
-0.0799225
-0.0748572
-0.069415
-0.0639642
-0.0586233
-0.0534171
-0.0483414
-0.0433849
-0.038535
-0.0337797
-0.0291074
-0.024507
-0.0199675
-0.0154781
-0.0110277
-0.00660538
-0.0021999
0.00231023
0.00693702
0.0115828
0.01626
0.020981
0.0257582
0.0306037
0.0355298
0.0405489
0.0456745
0.0509215
0.0563075
0.0618535
0.0675837
0.0735111
0.0795298
0.0846232
0.0811469
0.0692033
0.0565915
0.0443326
0.0324491
0.0208806
0.00959932
-0.00138692
-0.0120424
-0.0223186
-0.0321987
-0.0417279
-0.0510125
-0.0533367
-0.0490656
-0.0457185
-0.0428853
-0.0398519
-0.036792
-0.0338203
-0.030946
-0.0281669
-0.0254771
-0.0228708
-0.0203357
-0.0178573
-0.0154232
-0.0130207
-0.0106376
-0.00826494
-0.00589845
-0.00353671
-0.00117845
0.00117847
0.00353673
0.00589847
0.00826497
0.0106377
0.0130208
0.0154232