/*--------------------------------*- C++ -*----------------------------------*\
  =========                 |
  \\      /  F ield         | OpenFOAM: The Open Source CFD Toolbox
   \\    /   O peration     | Website:  https://openfoam.org
    \\  /    A nd           | Version:  7
     \\/     M anipulation  |
\*---------------------------------------------------------------------------*/
FoamFile
{
    version     2.0;
    format      ascii;
    class       volScalarField;
    location    "0.019";
    object      gradTy;
}
// * * * * * * * * * * * * * * * * * * * * * * * * * * * * * * * * * * * * * //

dimensions      [0 -1 0 1 0 0 0];

internalField   nonuniform List<scalar> 
10000
(
0.000701804
0.000705928
0.000714229
0.000726685
0.00074333
0.000764193
0.000789297
0.000818679
0.000852406
0.000890496
0.00093298
0.00097989
0.00103129
0.00108718
0.00114758
0.00121246
0.00128181
0.00135561
0.00143376
0.00151619
0.00160277
0.00169339
0.00178785
0.00188596
0.0019875
0.00209225
0.00219992
0.00231024
0.00242289
0.00253751
0.00265372
0.00277104
0.0028889
0.00300667
0.00312357
0.00323875
0.00335131
0.00346037
0.00356506
0.00366468
0.0037586
0.00384627
0.00392716
0.00400054
0.00406539
0.00412064
0.00416539
0.00419911
0.00422155
0.00423275
0.00423275
0.00422154
0.00419911
0.00416541
0.00412064
0.00406538
0.00400052
0.00392717
0.00384627
0.00375858
0.00366468
0.00356507
0.00346037
0.00335131
0.00323875
0.00312357
0.00300667
0.00288891
0.00277103
0.00265372
0.00253751
0.00242288
0.00231024
0.00219992
0.00209225
0.00198752
0.00188595
0.00178784
0.00169339
0.00160278
0.00151618
0.00143375
0.0013556
0.00128181
0.00121245
0.00114758
0.0010872
0.00103131
0.000979895
0.00093298
0.000890502
0.000852417
0.000818705
0.000789313
0.000764204
0.000743346
0.000726701
0.000714218
0.000705917
0.000701809
0.00210429
0.00211672
0.00214161
0.002179
0.00222895
0.00229156
0.00236693
0.00245518
0.00255638
0.00267074
0.0027983
0.00293921
0.00309355
0.00326141
0.00344278
0.00363768
0.00384604
0.00406775
0.00430258
0.00455027
0.0048105
0.00508281
0.00536672
0.00566161
0.00596685
0.00628171
0.00660538
0.00693703
0.00727571
0.0076204
0.00796989
0.0083228
0.00867746
0.0090319
0.00938384
0.00973068
0.0100697
0.010398
0.0107132
0.011013
0.0112956
0.0115595
0.0118032
0.0120245
0.0122203
0.0123872
0.0125222
0.0126236
0.012691
0.0127246
0.0127246
0.012691
0.0126236
0.0125222
0.0123872
0.0122203
0.0120245
0.0118032
0.0115595
0.0112956
0.011013
0.0107132
0.010398
0.0100696
0.00973067
0.00938384
0.00903191
0.00867746
0.00832278
0.00796988
0.00762038
0.0072757
0.00693701
0.00660536
0.0062817
0.00596684
0.00566161
0.00536669
0.0050828
0.00481048
0.00455025
0.00430255
0.00406773
0.00384603
0.00363768
0.00344279
0.00326141
0.00309357
0.00293921
0.0027983
0.00267073
0.00255639
0.00245517
0.00236694
0.00229157
0.00222896
0.002179
0.00214159
0.00211668
0.00210425
0.00350315
0.0035239
0.00356542
0.00362783
0.00371118
0.00381568
0.00394148
0.00408876
0.00425774
0.00444862
0.00466164
0.00489697
0.00515476
0.00543515
0.00573816
0.00606385
0.00641207
0.00678265
0.00717528
0.00758948
0.00802468
0.00848019
0.00895513
0.00944849
0.00995922
0.010486
0.0110277
0.0115828
0.0121497
0.0127268
0.0133122
0.0139035
0.0144982
0.0150928
0.0156835
0.0162659
0.0168353
0.0173866
0.0179156
0.0184183
0.0188919
0.0193345
0.019744
0.0201171
0.020448
0.02073
0.0209573
0.0211273
0.0212397
0.0212955
0.0212955
0.0212397
0.0211273
0.0209573
0.0207299
0.020448
0.0201171
0.019744
0.0193345
0.0188919
0.0184183
0.0179156
0.0173866
0.0168352
0.0162659
0.0156835
0.0150928
0.0144982
0.0139035
0.0133121
0.0127268
0.0121496
0.0115827
0.0110277
0.010486
0.00995918
0.00944846
0.00895507
0.00848014
0.00802463
0.00758944
0.00717524
0.00678264
0.00641206
0.00606383
0.00573813
0.0054351
0.00515472
0.00489695
0.00466164
0.00444862
0.00425774
0.00408874
0.00394147
0.00381568
0.0037112
0.00362784
0.00356544
0.0035239
0.00350311
0.00489589
0.00492499
0.00498324
0.00507076
0.00518772
0.00533433
0.00551081
0.00571746
0.0059546
0.00622252
0.00652157
0.00685199
0.00721405
0.00760791
0.00803373
0.00849146
0.008981
0.00950211
0.0100543
0.0106371
0.0112495
0.0118907
0.0125593
0.013254
0.0139732
0.0147151
0.0154781
0.0162599
0.0170587
0.0178722
0.0186977
0.0195323
0.0203722
0.0212129
0.0220489
0.0228736
0.0236799
0.0244607
0.025209
0.0259193
0.0265875
0.0272121
0.0277923
0.028324
0.028798
0.0292015
0.0295248
0.0297642
0.029921
0.0299982
0.0299982
0.029921
0.0297642
0.0295248
0.0292015
0.028798
0.028324
0.0277922
0.0272121
0.0265874
0.0259192
0.025209
0.0244606
0.0236799
0.0228735
0.0220489
0.0212129
0.0203722
0.0195322
0.0186977
0.0178721
0.0170587
0.0162599
0.015478
0.0147151
0.0139731
0.0132539
0.0125592
0.0118906
0.0112495
0.010637
0.0100543
0.00950206
0.00898096
0.00849139
0.00803366
0.00760786
0.007214
0.00685197
0.00652156
0.00622253
0.0059546
0.00571746
0.00551079
0.00533431
0.00518772
0.00507077
0.00498326
0.00492503
0.00489591
0.00628007
0.00631757
0.00639263
0.00650544
0.0066562
0.00684515
0.0070727
0.0073392
0.00764506
0.00799069
0.00837655
0.00880302
0.00927047
0.00977913
0.0103292
0.0109208
0.0115537
0.0122276
0.012942
0.0136961
0.014489
0.0153192
0.0161853
0.0170853
0.0180172
0.0189787
0.0199675
0.020981
0.0220167
0.0230718
0.0241433
0.0252276
0.0263202
0.0274154
0.0285059
0.0295828
0.0306361
0.0316556
0.0326317
0.0335557
0.0344222
0.0352319
0.0359885
0.0366901
0.0373214
0.0378576
0.0382815
0.0385899
0.0387885
0.0388851
0.0388851
0.0387884
0.0385899
0.0382815
0.0378575
0.0373214
0.0366901
0.0359885
0.0352319
0.0344222
0.0335556
0.0326317
0.0316556
0.0306361
0.0295828
0.0285059
0.0274154
0.0263202
0.0252276
0.0241432
0.0230718
0.0220166
0.020981
0.0199674
0.0189787
0.0180171
0.0170852
0.0161852
0.0153192
0.014489
0.0136961
0.0129419
0.0122275
0.0115536
0.0109207
0.0103292
0.00977909
0.00927042
0.00880299
0.00837654
0.0079907
0.00764505
0.00733921
0.0070727
0.00684516
0.0066562
0.00650545
0.00639264
0.00631758
0.00628008
0.00765302
0.00769899
0.007791
0.00792927
0.00811409
0.0083458
0.00862484
0.00895174
0.009327
0.0097512
0.0102249
0.0107486
0.0113228
0.011948
0.0126243
0.0133518
0.0141306
0.0149603
0.0158402
0.0167695
0.0177469
0.0187707
0.019839
0.0209496
0.0220996
0.0232864
0.024507
0.0257582
0.0270371
0.0283405
0.0296651
0.0310073
0.0323621
0.0337229
0.0350804
0.036423
0.0377371
0.0390085
0.040224
0.0413703
0.0424373
0.0434311
0.0443686
0.0452575
0.0460733
0.0467608
0.0472901
0.0476629
0.0478959
0.048007
0.048007
0.0478958
0.0476629
0.0472901
0.0467608
0.0460733
0.0452575
0.0443686
0.0434311
0.0424373
0.0413702
0.0402239
0.0390084
0.0377371
0.036423
0.0350804
0.0337228
0.0323621
0.0310073
0.0296651
0.0283404
0.027037
0.0257582
0.0245069
0.0232864
0.0220996
0.0209495
0.019839
0.0187707
0.0177468
0.0167694
0.0158402
0.0149602
0.0141306
0.0133518
0.0126242
0.0119479
0.0113228
0.0107486
0.0102249
0.00975118
0.00932699
0.00895173
0.00862485
0.00834581
0.00811411
0.0079293
0.00779102
0.007699
0.00765305
0.00901203
0.00906654
0.00917565
0.00933961
0.0095588
0.00983364
0.0101647
0.0105527
0.0109982
0.0115019
0.0120646
0.012687
0.0133697
0.0141132
0.014918
0.0157843
0.0167121
0.017701
0.0187505
0.0198594
0.0210264
0.0222494
0.0235261
0.0248536
0.0262287
0.0276479
0.0291074
0.0306037
0.0321332
0.0336926
0.0352787
0.0368882
0.0385165
0.0401564
0.0417973
0.0434238
0.0450172
0.0465577
0.0480301
0.0494125
0.0506777
0.0518418
0.0529556
0.0540592
0.0551175
0.0559883
0.0566234
0.0570448
0.057295
0.0574104
0.0574104
0.057295
0.0570447
0.0566233
0.0559883
0.0551175
0.0540592
0.0529556
0.0518418
0.0506777
0.0494125
0.04803
0.0465577
0.0450172
0.0434237
0.0417972
0.0401564
0.0385164
0.0368882
0.0352787
0.0336925
0.0321332
0.0306037
0.0291074
0.0276478
0.0262286
0.0248536
0.0235261
0.0222494
0.0210264
0.0198594
0.0187505
0.017701
0.0167121
0.0157843
0.014918
0.0141132
0.0133696
0.0126869
0.0120645
0.0115018
0.0109981
0.0105526
0.0101647
0.00983367
0.00955881
0.00933963
0.00917567
0.00906657
0.00901208
0.0103542
0.0104173
0.0105437
0.0107336
0.0109875
0.011306
0.0116897
0.0121394
0.012656
0.0132403
0.0138934
0.014616
0.0154091
0.0162734
0.0172094
0.0182175
0.0192979
0.0204502
0.021674
0.022968
0.0243305
0.0257594
0.0272517
0.028804
0.0304124
0.0320725
0.0337798
0.0355298
0.0373184
0.0391421
0.0409985
0.0428854
0.0447996
0.046735
0.04868
0.0506145
0.0525123
0.0543425
0.0560983
0.0577488
0.0592001
0.0604876
0.0617411
0.0630983
0.0645449
0.0656498
0.0663707
0.0667996
0.0670318
0.0671322
0.0671322
0.0670318
0.0667996
0.0663707
0.0656498
0.0645449
0.0630983
0.0617411
0.0604875
0.0592001
0.0577487
0.0560982
0.0543425
0.0525122
0.0506145
0.04868
0.0467349
0.0447995
0.0428853
0.0409985
0.0391421
0.0373183
0.0355297
0.0337797
0.0320724
0.0304123
0.028804
0.0272517
0.0257594
0.0243305
0.0229679
0.021674
0.0204502
0.0192978
0.0182175
0.0172093
0.0162733
0.0154091
0.014616
0.0138934
0.0132403
0.0126559
0.0121394
0.0116897
0.011306
0.0109875
0.0107336
0.0105437
0.0104174
0.0103543
0.0116766
0.0117484
0.0118921
0.0121082
0.0123972
0.0127598
0.0131967
0.013709
0.0142976
0.0149638
0.0157087
0.0165334
0.0174389
0.0184264
0.0194965
0.02065
0.021887
0.0232076
0.024611
0.0260963
0.0276614
0.029304
0.0310206
0.032807
0.0346585
0.0365698
0.0385351
0.0405489
0.0426061
0.0447029
0.0468381
0.0490117
0.0512244
0.0534733
0.055749
0.0580244
0.0602634
0.0623964
0.064472
0.0664899
0.0680969
0.069382
0.0706418
0.0722713
0.0745419
0.0759269
0.0766441
0.0769864
0.0771364
0.0771909
0.0771909
0.0771364
0.0769864
0.0766441
0.0759269
0.0745419
0.0722713
0.0706418
0.0693819
0.0680969
0.0664899
0.064472
0.0623964
0.0602634
0.0580243
0.0557489
0.0534732
0.0512243
0.0490116
0.046838
0.0447029
0.042606
0.0405489
0.0385351
0.0365697
0.0346585
0.032807
0.0310206
0.029304
0.0276614
0.0260962
0.024611
0.0232075
0.021887
0.02065
0.0194965
0.0184264
0.0174389
0.0165333
0.0157087
0.0149638
0.0142976
0.0137089
0.0131967
0.0127598
0.0123972
0.0121083
0.0118922
0.0117484
0.0116766
0.0129758
0.0130564
0.0132178
0.0134603
0.0137847
0.0141918
0.0146826
0.0152583
0.0159201
0.0166693
0.0175076
0.0184361
0.0194565
0.0205698
0.0217773
0.0230799
0.0244781
0.025972
0.0275613
0.0292448
0.0310206
0.032886
0.0348369
0.0368684
0.0389747
0.0411492
0.043385
0.0456745
0.0480108
0.0503893
0.0528101
0.0552771
0.0577987
0.0603778
0.063019
0.0656786
0.0683361
0.0707303
0.0731328
0.075878
0.0775569
0.0785468
0.0794222
0.0810578
0.0856868
0.0871386
0.0875615
0.0876357
0.0876072
0.0875747
0.0875746
0.0876072
0.0876357
0.0875615
0.0871386
0.0856868
0.0810578
0.0794222
0.0785468
0.0775569
0.075878
0.0731327
0.0707302
0.0683361
0.0656786
0.063019
0.0603778
0.0577986
0.0552771
0.05281
0.0503893
0.0480108
0.0456745
0.043385
0.0411492
0.0389747
0.0368684
0.0348368
0.0328859
0.0310206
0.0292447
0.0275612
0.025972
0.0244781
0.0230799
0.0217773
0.0205698
0.0194564
0.0184361
0.0175075
0.0166693
0.01592
0.0152583
0.0146826
0.0141918
0.0137847
0.0134603
0.0132178
0.0130564
0.0129759
0.0142487
0.014338
0.0145171
0.0147864
0.0151466
0.0155987
0.016144
0.0167838
0.0175197
0.0183534
0.0192865
0.0203209
0.0214584
0.0227005
0.0240488
0.0255046
0.0270687
0.0287416
0.0305233
0.0324128
0.0344084
0.0365069
0.0387038
0.0409933
0.0433681
0.0458204
0.0483415
0.0509215
0.0535494
0.0562174
0.0589278
0.0616883
0.0645239
0.0674375
0.0704964
0.0735696
0.0769155
0.079307
0.0817098
0.0866004
0.0879794
0.0881026
0.0877215
0.0871354
0.0864888
0.0858638
0.0853135
0.0848735
0.0845678
0.0844114
0.0844114
0.0845678
0.0848734
0.0853134
0.0858638
0.0864887
0.0871354
0.0877215
0.0881026
0.0879794
0.0866004
0.0817098
0.0793069
0.0769155
0.0735696
0.0704964
0.0674375
0.0645239
0.0616883
0.0589278
0.0562174
0.0535494
0.0509215
0.0483415
0.0458204
0.0433681
0.0409932
0.0387038
0.0365069
0.0344084
0.0324128
0.0305232
0.0287416
0.0270686
0.0255045
0.0240488
0.0227005
0.0214583
0.0203209
0.0192865
0.0183533
0.0175197
0.0167838
0.016144
0.0155987
0.0151466
0.0147864
0.0145171
0.0143381
0.0142487
0.0154914
0.0155897
0.0157866
0.0160828
0.0164791
0.0169767
0.017577
0.0182818
0.0190928
0.020012
0.0210417
0.0221839
0.0234409
0.0248147
0.0263073
0.0279204
0.0296555
0.0315134
0.0334946
0.0355986
0.0378239
0.0401672
0.0426237
0.045186
0.0478454
0.0505923
0.0534172
0.0563075
0.0592434
0.0622077
0.065209
0.068247
0.0714032
0.0745933
0.0782112
0.0814495
0.0867219
0.0881527
0.088087
0.0873187
0.0861461
0.0846511
0.0827126
0.0797582
0.0737509
0.070994
0.0694326
0.0684528
0.0678539
0.0675661
0.0675661
0.0678539
0.0684527
0.0694326
0.070994
0.0737509
0.0797581
0.0827125
0.084651
0.086146
0.0873187
0.088087
0.0881526
0.0867218
0.0814495
0.0782111
0.0745933
0.0714031
0.068247
0.065209
0.0622076
0.0592433
0.0563074
0.0534171
0.0505923
0.0478453
0.045186
0.0426237
0.0401672
0.0378238
0.0355986
0.0334946
0.0315134
0.0296554
0.0279204
0.0263073
0.0248147
0.0234408
0.0221839
0.0210417
0.020012
0.0190927
0.0182818
0.017577
0.0169767
0.0164791
0.0160828
0.0157867
0.0155897
0.0154914
0.0167002
0.0168075
0.0170224
0.0173456
0.0177783
0.0183217
0.0189776
0.019748
0.020635
0.021641
0.0227687
0.0240206
0.0253995
0.0269079
0.0285483
0.0303231
0.0322342
0.0342832
0.0364713
0.0387986
0.0412644
0.0438657
0.0465972
0.0494499
0.0524124
0.055473
0.0586234
0.0618535
0.0651244
0.0683861
0.0716887
0.0749327
0.0785038
0.0815874
0.0865832
0.0875835
0.0868554
0.0849847
0.0816561
0.0749273
0.0711167
0.0681192
0.0651885
0.0618923
0.0580207
0.0551771
0.0532128
0.0518902
0.0510661
0.0506688
0.0506688
0.0510661
0.0518902
0.0532128
0.055177
0.0580207
0.0618923
0.0651885
0.0681191
0.0711166
0.0749273
0.081656
0.0849846
0.0868554
0.0875835
0.0865831
0.0815873
0.0785038
0.0749327
0.0716887
0.0683861
0.0651244
0.0618535
0.0586234
0.055473
0.0524124
0.0494499
0.0465972
0.0438657
0.0412644
0.0387986
0.0364712
0.0342832
0.0322342
0.0303231
0.0285483
0.0269078
0.0253994
0.0240206
0.0227687
0.021641
0.020635
0.019748
0.0189776
0.0183217
0.0177783
0.0173457
0.0170224
0.0168075
0.0167002
0.0178711
0.0179873
0.0182203
0.0185708
0.01904
0.0196295
0.0203414
0.0211779
0.0221416
0.0232355
0.0244625
0.0258259
0.027329
0.0289748
0.0307666
0.0327073
0.0347995
0.0370456
0.0394478
0.0420074
0.0447249
0.0475987
0.0506232
0.0537875
0.0570747
0.0604675
0.0639642
0.0675837
0.0712505
0.07477
0.0784844
0.0815593
0.0863714
0.0869586
0.0854363
0.0819346
0.0746169
0.069753
0.0650918
0.0598811
0.0555237
0.0517593
0.0482584
0.0448188
0.0414658
0.0386739
0.0365377
0.0350107
0.0340303
0.0335513
0.0335513
0.0340303
0.0350107
0.0365376
0.0386739
0.0414657
0.0448188
0.0482584
0.0517593
0.0555237
0.0598811
0.0650918
0.069753
0.0746169
0.0819346
0.0854362
0.0869586
0.0863714
0.0815592
0.0784844
0.07477
0.0712505
0.0675837
0.0639642
0.0604675
0.0570747
0.0537875
0.0506232
0.0475987
0.0447249
0.0420074
0.0394478
0.0370456
0.0347994
0.0327072
0.0307666
0.0289748
0.0273289
0.0258259
0.0244625
0.0232355
0.0221416
0.0211779
0.0203414
0.0196295
0.01904
0.0185708
0.0182203
0.0179874
0.0178711
0.0189998
0.019125
0.019376
0.0197538
0.0202596
0.0208954
0.0216635
0.0225665
0.0236076
0.0247901
0.0261177
0.0275942
0.0292234
0.0310094
0.0329559
0.0350665
0.0373447
0.0397937
0.0424168
0.0452171
0.0481973
0.0513586
0.0546975
0.0582011
0.0618411
0.065579
0.0694151
0.0735111
0.0777806
0.0812271
0.0861999
0.0867385
0.0849498
0.0809264
0.0727499
0.0665702
0.0601877
0.0545643
0.0493064
0.0441924
0.0395332
0.0353179
0.0314366
0.027816
0.0244951
0.0216506
0.0193812
0.0177072
0.0166121
0.0160721
0.0160721
0.0166121
0.0177072
0.0193812
0.0216506
0.024495
0.0278159
0.0314366
0.0353178
0.0395332
0.0441924
0.0493064
0.0545644
0.0601877
0.0665702
0.0727499
0.0809264
0.0849498
0.0867385
0.0861999
0.0812271
0.0777806
0.0735111
0.0694151
0.065579
0.0618411
0.058201
0.0546975
0.0513586
0.0481973
0.0452171
0.0424168
0.0397937
0.0373447
0.0350665
0.0329558
0.0310094
0.0292234
0.0275942
0.0261177
0.0247901
0.0236076
0.0225665
0.0216635
0.0208954
0.0202596
0.0197538
0.0193761
0.0191251
0.0189998
0.0200819
0.0202161
0.0204851
0.02089
0.0214324
0.0221144
0.0229388
0.0239085
0.0250273
0.026299
0.027728
0.0293188
0.0310762
0.0330047
0.0351091
0.0373936
0.0398623
0.0425195
0.0453694
0.0484171
0.0516691
0.055132
0.0588095
0.0626922
0.0667359
0.0708311
0.0748572
0.0795298
0.0854123
0.0864478
0.0848355
0.0807322
0.0722431
0.0655129
0.058324
0.051644
0.0452122
0.0392032
0.0335514
0.0282048
0.0232384
0.0186668
0.0144647
0.0106111
0.00713382
0.00412817
0.00169691
-0.000113391
-0.00130332
-0.00189119
-0.00189119
-0.00130332
-0.000113397
0.00169691
0.00412816
0.00713382
0.0106111
0.0144647
0.0186668
0.0232384
0.0282048
0.0335514
0.0392032
0.0452122
0.051644
0.058324
0.0655129
0.0722431
0.0807322
0.0848355
0.0864478
0.0854123
0.0795297
0.0748572
0.0708311
0.0667359
0.0626921
0.0588095
0.055132
0.0516691
0.0484171
0.0453693
0.0425195
0.0398623
0.0373935
0.035109
0.0330047
0.0310762
0.0293188
0.027728
0.026299
0.0250273
0.0239085
0.0229388
0.0221145
0.0214324
0.0208901
0.0204852
0.0202162
0.0200819
0.0211127
0.0212559
0.0215428
0.0219747
0.0225534
0.0232815
0.0241619
0.0251982
0.0263946
0.0277558
0.0292867
0.0309928
0.0328797
0.0349529
0.0372181
0.0396802
0.042344
0.0452141
0.0482953
0.0515946
0.0551225
0.0588951
0.0629329
0.0672517
0.0718221
0.0764087
0.0799225
0.0846232
0.0843754
0.0808031
0.0724429
0.0655775
0.0580335
0.0507907
0.0435961
0.0366528
0.0299747
0.0236241
0.0176103
0.0119371
0.00663103
0.00171215
-0.00280461
-0.00693268
-0.0106742
-0.0139545
-0.0166027
-0.0185552
-0.0198259
-0.0204495
-0.0204496
-0.0198259
-0.0185552
-0.0166027
-0.0139545
-0.0106742
-0.00693268
-0.00280461
0.00171215
0.00663101
0.011937
0.0176103
0.0236241
0.0299746
0.0366528
0.0435961
0.0507907
0.0580335
0.0655775
0.0724428
0.080803
0.0843753
0.0846232
0.0799225
0.0764087
0.0718221
0.0672517
0.0629328
0.058895
0.0551224
0.0515945
0.0482953
0.045214
0.042344
0.0396802
0.0372181
0.0349529
0.0328797
0.0309928
0.0292867
0.0277558
0.0263946
0.0251982
0.0241619
0.0232815
0.0225535
0.0219747
0.0215428
0.0212559
0.0211128
0.0220876
0.0222395
0.0225441
0.0230027
0.0236174
0.024391
0.025327
0.0264295
0.0277031
0.0291535
0.0307863
0.0326081
0.0346254
0.0368451
0.0392738
0.0419173
0.0447808
0.0478686
0.0511848
0.0547361
0.0585358
0.0626102
0.0670059
0.0718047
0.0771523
0.0833341
0.0840873
0.0811469
0.0731428
0.0664131
0.058813
0.0513349
0.0437294
0.0362014
0.0287725
0.0215273
0.0145166
0.00779268
0.00139172
-0.00465508
-0.0103396
-0.0156382
-0.0204724
-0.0248876
-0.0289812
-0.0327187
-0.0356568
-0.0377447
-0.039066
-0.039704
-0.039704
-0.039066
-0.0377447
-0.0356568
-0.0327187
-0.0289812
-0.0248876
-0.0204724
-0.0156383
-0.0103396
-0.0046551
0.00139169
0.00779266
0.0145166
0.0215273
0.0287725
0.0362014
0.0437294
0.0513349
0.058813
0.0664131
0.0731428
0.0811468
0.0840872
0.0833341
0.0771523
0.0718047
0.0670059
0.0626101
0.0585358
0.054736
0.0511847
0.0478685
0.0447808
0.0419173
0.0392737
0.0368451
0.0346254
0.0326081
0.0307863
0.0291534
0.0277031
0.0264295
0.0253271
0.0243911
0.0236175
0.0230028
0.0225442
0.0222396
0.0220876
0.0230015
0.023162
0.023484
0.0239689
0.024619
0.0254375
0.0264282
0.0275959
0.0289459
0.0304846
0.0322187
0.0341558
0.0363039
0.0386712
0.0412657
0.0440946
0.0471633
0.0504751
0.0540309
0.0578327
0.061891
0.0662337
0.0709204
0.0760692
0.0819262
0.0821664
0.0784254
0.0692033
0.0608969
0.0531307
0.0452714
0.0374034
0.0295045
0.0216427
0.0138689
0.00624488
-0.00117533
-0.00833298
-0.0151751
-0.0216251
-0.0277321
-0.0335079
-0.0386311
-0.0432517
-0.0477465
-0.0523976
-0.0556869
-0.057834
-0.0591271
-0.0597367
-0.0597367
-0.0591271
-0.057834
-0.0556869
-0.0523976
-0.0477465
-0.0432517
-0.0386311
-0.0335079
-0.0277321
-0.0216251
-0.0151751
-0.008333
-0.00117536
0.00624488
0.0138689
0.0216427
0.0295045
0.0374034
0.0452714
0.0531307
0.0608969
0.0692032
0.0784254
0.0821664
0.0819261
0.0760692
0.0709204
0.0662337
0.061891
0.0578327
0.0540308
0.050475
0.0471633
0.0440946
0.0412657
0.0386712
0.0363039
0.0341558
0.0322187
0.0304846
0.0289459
0.0275959
0.0264282
0.0254375
0.024619
0.0239689
0.0234841
0.0231621
0.0230015
0.0238493
0.0240184
0.0243573
0.0248678
0.0255525
0.0264148
0.0274591
0.0286907
0.0301157
0.0317411
0.033575
0.0356263
0.0379043
0.0404194
0.0431815
0.0461999
0.0494812
0.0530271
0.0568323
0.0608872
0.0651895
0.0697553
0.0746303
0.0798999
0.0787903
0.0714533
0.0647046
0.0565915
0.0483291
0.0401324
0.0319013
0.0236377
0.0153494
0.00707499
-0.00113354
-0.00921735
-0.0171324
-0.0248022
-0.0321864
-0.0390136
-0.0455527
-0.0521478
-0.0574282
-0.0618938
-0.0665237
-0.0736229
-0.0770552
-0.078981
-0.08008
-0.0805895
-0.0805895
-0.08008
-0.078981
-0.0770552
-0.0736229
-0.0665236
-0.0618938
-0.0574282
-0.0521478
-0.0455527
-0.0390136
-0.0321864
-0.0248022
-0.0171324
-0.00921736
-0.00113356
0.00707496
0.0153494
0.0236377
0.0319013
0.0401324
0.0483291
0.0565915
0.0647046
0.0714533
0.0787903
0.0798999
0.0746302
0.0697553
0.0651894
0.0608872
0.0568322
0.053027
0.0494812
0.0461999
0.0431815
0.0404194
0.0379043
0.0356263
0.0335751
0.0317412
0.0301157
0.0286907
0.0274592
0.0264149
0.0255525
0.0248679
0.0243573
0.0240184
0.0238494
0.0246261
0.0248033
0.0251586
0.025694
0.0264122
0.0273171
0.0284134
0.0297071
0.0312049
0.0329148
0.0348461
0.0370089
0.0394147
0.042076
0.045006
0.0482175
0.0517208
0.055518
0.0595949
0.063919
0.068463
0.0732215
0.0782151
0.0765767
0.0683438
0.0604084
0.0525807
0.0443326
0.03587
0.0273136
0.0186799
0.00998308
0.00123744
-0.00753117
-0.0162625
-0.0248789
-0.0333935
-0.0416429
-0.049867
-0.0568265
-0.0634771
-0.0722855
-0.0772417
-0.0805893
-0.0830654
-0.0849535
-0.0863808
-0.0874122
-0.0880837
-0.088415
-0.088415
-0.0880837
-0.0874122
-0.0863808
-0.0849535
-0.0830654
-0.0805893
-0.0772417
-0.0722855
-0.0634771
-0.0568265
-0.049867
-0.0416429
-0.0333935
-0.0248789
-0.0162625
-0.00753121
0.0012374
0.00998306
0.0186798
0.0273135
0.03587
0.0443326
0.0525806
0.0604084
0.0683438
0.0765767
0.0782151
0.0732214
0.0684629
0.063919
0.0595949
0.055518
0.0517208
0.0482175
0.045006
0.042076
0.0394147
0.0370089
0.0348461
0.0329149
0.0312049
0.0297071
0.0284135
0.0273172
0.0264123
0.0256941
0.0251587
0.0248034
0.0246262
0.0253265
0.0255116
0.0258827
0.026442
0.0271925
0.0281383
0.0292847
0.030638
0.0322058
0.0339971
0.0360221
0.0382926
0.0408219
0.0436253
0.0467202
0.0501255
0.0538606
0.0579359
0.0623307
0.0669653
0.0717715
0.0767175
0.0748931
0.0663029
0.0578455
0.0494737
0.0410671
0.0324491
0.0236353
0.0146722
0.00559087
-0.0035842
-0.0128443
-0.0221986
-0.0315613
-0.0407279
-0.0500355
-0.0586541
-0.0689865
-0.0751472
-0.079466
-0.0827088
-0.0851149
-0.0866191
-0.0866672
-0.0832239
-0.0825863
-0.0826913
-0.0829181
-0.0830635
-0.0830635
-0.0829181
-0.0826913
-0.0825863
-0.0832239
-0.0866673
-0.0866191
-0.0851149
-0.0827088
-0.079466
-0.0751472
-0.0689865
-0.0586541
-0.0500355
-0.0407279
-0.0315613
-0.0221987
-0.0128443
-0.00358423
0.00559084
0.0146722
0.0236353
0.0324491
0.0410671
0.0494736
0.0578455
0.0663029
0.0748931
0.0767174
0.0717715
0.0669653
0.0623307
0.0579359
0.0538606
0.0501255
0.0467202
0.0436254
0.0408219
0.0382926
0.0360221
0.0339972
0.0322059
0.0306381
0.0292847
0.0281384
0.0271925
0.0264421
0.0258828
0.0255116
0.0253266
0.0259454
0.026138
0.0265242
0.0271063
0.0278875
0.0288723
0.0300664
0.0314765
0.033111
0.0349795
0.0370934
0.0394659
0.0421122
0.0450501
0.048301
0.0518925
0.0558612
0.0602492
0.0650558
0.0700847
0.0752004
0.07344
0.0647859
0.0561355
0.0474709
0.0387532
0.0299145
0.0208805
0.0116375
0.00220494
-0.00738116
-0.0170759
-0.0268742
-0.0369334
-0.047165
-0.0565773
-0.0675409
-0.0741563
-0.0786987
-0.0817526
-0.0829896
-0.0804392
-0.0803693
-0.0805903
-0.0802465
-0.0789832
-0.0783422
-0.0781424
-0.0781285
-0.0781527
-0.0781527
-0.0781285
-0.0781424
-0.0783422
-0.0789832
-0.0802465
-0.0805903
-0.0803693
-0.0804392
-0.0829896
-0.0817527
-0.0786987
-0.0741563
-0.0675409
-0.0565773
-0.047165
-0.0369334
-0.0268742
-0.0170759
-0.00738117
0.00220493
0.0116375
0.0208805
0.0299145
0.0387532
0.0474709
0.0561355
0.0647859
0.07344
0.0752004
0.0700847
0.0650558
0.0602492
0.0558612
0.0518925
0.048301
0.0450501
0.0421122
0.0394659
0.0370935
0.0349796
0.033111
0.0314766
0.0300664
0.0288724
0.0278876
0.0271063
0.0265243
0.026138
0.0259455
0.0264776
0.0266772
0.0270777
0.0276813
0.0284916
0.0295132
0.0307522
0.0322158
0.0339129
0.0358538
0.0380507
0.040518
0.0432724
0.0463332
0.0497239
0.0534768
0.0576503
0.0623661
0.0677967
0.0733719
0.0719567
0.0635006
0.0549092
0.0461856
0.0373223
0.0282957
0.0190676
0.00959932
-0.000125546
-0.0100972
-0.020267
-0.0305209
-0.0407349
-0.0516231
-0.0637515
-0.0710725
-0.0758097
-0.0781706
-0.076355
-0.0766421
-0.0767727
-0.0759736
-0.0756175
-0.0754127
-0.075031
-0.0744021
-0.0739371
-0.0736871
-0.0735805
-0.0735461
-0.0735461
-0.0735805
-0.0736871
-0.0739371
-0.0744021
-0.075031
-0.0754127
-0.0756175
-0.0759736
-0.0767727
-0.0766421
-0.076355
-0.0781706
-0.0758097
-0.0710725
-0.0637515
-0.0516231
-0.0407349
-0.0305209
-0.020267
-0.0100972
-0.000125546
0.0095993
0.0190676
0.0282957
0.0373223
0.0461856
0.0549092
0.0635006
0.0719567
0.0733719
0.0677967
0.0623661
0.0576503
0.0534768
0.0497239
0.0463332
0.0432724
0.0405181
0.0380507
0.0358538
0.0339129
0.0322159
0.0307523
0.0295133
0.0284917
0.0276814
0.0270778
0.0266773
0.0264777
0.0269179
0.0271242
0.027538
0.0281618
0.0289992
0.0300552
0.0313361
0.0328495
0.0346045
0.0366122
0.0388854
0.0414393
0.0442917
0.0474624
0.0509717
0.0548404
0.0591106
0.0639973
0.07064
0.0700945
0.0621934
0.0539261
0.0453641
0.0365439
0.0274743
0.0181447
0.00853301
-0.00138695
-0.011638
-0.0222327
-0.0331365
-0.04411
-0.0540619
-0.0652517
-0.0715468
-0.0745791
-0.0728999
-0.0728155
-0.0721778
-0.0719591
-0.0717579
-0.0713356
-0.0709846
-0.0706819
-0.0703319
-0.0699247
-0.0695831
-0.0693542
-0.0692258
-0.0691706
-0.0691706
-0.0692258
-0.0693542
-0.0695831
-0.0699247
-0.0703319
-0.0706819
-0.0709846
-0.0713356
-0.0717579
-0.0719592
-0.0721778
-0.0728155
-0.0728999
-0.0745791
-0.0715468
-0.0652517
-0.0540619
-0.04411
-0.0331365
-0.0222327
-0.0116381
-0.00138695
0.008533
0.0181447
0.0274743
0.0365439
0.0453641
0.0539261
0.0621934
0.0700945
0.07064
0.0639973
0.0591106
0.0548403
0.0509716
0.0474624
0.0442917
0.0414393
0.0388854
0.0366122
0.0346046
0.0328495
0.0313361
0.0300553
0.0289993
0.0281619
0.0275381
0.0271243
0.026918
0.0272614
0.0274738
0.0278999
0.0285423
0.0294048
0.0304926
0.0318121
0.0333713
0.0351796
0.0372479
0.0395898
0.0422213
0.0451616
0.0484323
0.0520511
0.0560063
0.0601725
0.0641066
0.0671074
0.0606059
0.0530217
0.0448428
0.0362433
0.0272864
0.0179886
0.0083451
-0.00165834
-0.0120424
-0.0228438
-0.0341335
-0.0460495
-0.0588727
-0.0663382
-0.0701816
-0.0690344
-0.069238
-0.0686519
-0.0682712
-0.0678378
-0.0675153
-0.0672207
-0.0668823
-0.0665586
-0.0662535
-0.0659442
-0.065635
-0.0653688
-0.0651726
-0.0650495
-0.0649914
-0.0649914
-0.0650495
-0.0651726
-0.0653688
-0.065635
-0.0659442
-0.0662535
-0.0665586
-0.0668823
-0.0672207
-0.0675153
-0.0678378
-0.0682712
-0.068652
-0.069238
-0.0690345
-0.0701816
-0.0663383
-0.0588727
-0.0460496
-0.0341336
-0.0228438
-0.0120424
-0.00165835
0.00834508
0.0179885
0.0272864
0.0362433
0.0448428
0.0530217
0.0606059
0.0671074
0.0641067
0.0601725
0.0560063
0.0520512
0.0484323
0.0451616
0.0422213
0.0395898
0.037248
0.0351796
0.0333714
0.0318122
0.0304927
0.0294049
0.0285424
0.0279
0.0274739
0.0272615
0.027503
0.027721
0.0281583
0.0288177
0.0297031
0.03082
0.0321749
0.0337759
0.0356322
0.037755
0.0401575
0.0428561
0.0458726
0.0492366
0.0529888
0.0571687
0.0616875
0.0653832
0.0595002
0.0524201
0.0446383
0.0363443
0.0276138
0.0184717
0.0089174
-0.00106001
-0.0114701
-0.0223186
-0.0336376
-0.0455245
-0.0582138
-0.0653763
-0.0686471
-0.0665269
-0.0654135
-0.0649307
-0.064442
-0.0640226
-0.0636293
-0.0632859
-0.0629694
-0.062656
-0.0623552
-0.0620698
-0.0617966
-0.0615417
-0.0613233
-0.0611563
-0.0610461
-0.060992
-0.060992
-0.0610461
-0.0611563
-0.0613233
-0.0615417
-0.0617966
-0.0620698
-0.0623553
-0.062656
-0.0629694
-0.0632859
-0.0636293
-0.0640227
-0.064442
-0.0649308
-0.0654135
-0.0665269
-0.0686471
-0.0653764
-0.0582138
-0.0455245
-0.0336376
-0.0223186
-0.0114701
-0.00106003
0.00891737
0.0184716
0.0276138
0.0363443
0.0446383
0.0524201
0.0595002
0.0653832
0.0616875
0.0571687
0.0529888
0.0492367
0.0458726
0.0428561
0.0401575
0.037755
0.0356322
0.0337759
0.032175
0.03082
0.0297032
0.0288177
0.0281584
0.027721
0.027503
0.0276379
0.0278609
0.0283082
0.0289828
0.0298889
0.0310321
0.032419
0.0340578
0.0359576
0.0381288
0.0405835
0.0433367
0.0464097
0.0498377
0.0536959
0.0582032
0.0642511
0.0626561
0.0533066
0.0451276
0.0369311
0.0284169
0.0194993
0.0101399
0.000306165
-0.0100312
-0.0208793
-0.0321987
-0.0439779
-0.0562692
-0.0622859
-0.0621786
-0.0627661
-0.0620988
-0.0613928
-0.06086
-0.0603924
-0.0599776
-0.0596
-0.0592584
-0.0589433
-0.0586451
-0.058364
-0.0581009
-0.0578572
-0.0576378
-0.057452
-0.0573084
-0.0572117
-0.0571633
-0.0571633
-0.0572117
-0.0573084
-0.0574521
-0.0576378
-0.0578572
-0.0581009
-0.058364
-0.0586451
-0.0589433
-0.0592584
-0.0596
-0.0599777
-0.0603925
-0.06086
-0.0613929
-0.0620989
-0.0627661
-0.0621786
-0.0622859
-0.0562692
-0.0439779
-0.0321987
-0.0208793
-0.0100312
0.000306171
0.0101399
0.0194993
0.0284169
0.0369311
0.0451276
0.0533066
0.0626561
0.0642511
0.0582032
0.0536959
0.0498377
0.0464097
0.0433367
0.0405835
0.0381288
0.0359577
0.0340579
0.0324191
0.0310321
0.029889
0.0289829
0.0283083
0.0278609
0.027638
0.0276615
0.0278888
0.0283449
0.0290328
0.0299571
0.0311236
0.0325394
0.0342125
0.0361517
0.0383665
0.0408665
0.0436624
0.0467667
0.050195
0.053953
0.057911
0.0608711
0.0540909
0.0461373
0.0380183
0.0296782
0.0209993
0.0119013
0.00232368
-0.00779511
-0.0185221
-0.0298862
-0.0417279
-0.0539568
-0.0596627
-0.0588777
-0.0585032
-0.0583603
-0.0579289
-0.0574172
-0.0569415
-0.0565071
-0.0561119
-0.0557506
-0.05542
-0.0551153
-0.054832
-0.0545689
-0.0543267
-0.0541069
-0.0539133
-0.0537513
-0.053626
-0.053541
-0.0534982
-0.0534982
-0.053541
-0.053626
-0.0537513
-0.0539133
-0.0541069
-0.0543267
-0.054569
-0.054832
-0.0551153
-0.0554201
-0.0557506
-0.0561119
-0.0565071
-0.0569415
-0.0574173
-0.057929
-0.0583603
-0.0585032
-0.0588777
-0.0596627
-0.0539568
-0.0417279