/*--------------------------------*- C++ -*----------------------------------*\
  =========                 |
  \\      /  F ield         | OpenFOAM: The Open Source CFD Toolbox
   \\    /   O peration     | Website:  https://openfoam.org
    \\  /    A nd           | Version:  7
     \\/     M anipulation  |
\*---------------------------------------------------------------------------*/
FoamFile
{
    version     2.0;
    format      ascii;
    class       volScalarField;
    location    "0.022";
    object      gradTx;
}
// * * * * * * * * * * * * * * * * * * * * * * * * * * * * * * * * * * * * * //

dimensions      [0 -1 0 1 0 0 0];

internalField   nonuniform List<scalar> 
10000
(
0.00230315
0.00690388
0.0114883
0.0160452
0.020563
0.0250307
0.0294367
0.0337692
0.0380162
0.0421655
0.0462044
0.0501202
0.0538997
0.0575296
0.0609962
0.0642858
0.0673844
0.0702782
0.0729529
0.0753948
0.07759
0.0795251
0.0811869
0.0825628
0.0836404
0.0844081
0.0848549
0.0849704
0.0847451
0.08417
0.0832375
0.081941
0.0802756
0.0782382
0.0758282
0.0730478
0.0699023
0.0664001
0.0625528
0.0583747
0.0538822
0.0490934
0.044028
0.0387081
0.0331587
0.0274092
0.0214926
0.0154452
0.0093044
0.00310774
-0.00310746
-0.00930411
-0.0154449
-0.0214923
-0.0274089
-0.0331584
-0.0387078
-0.0440277
-0.0490931
-0.0538819
-0.0583744
-0.0625525
-0.0663998
-0.069902
-0.0730475
-0.0758279
-0.078238
-0.0802754
-0.0819408
-0.0832373
-0.0841699
-0.084745
-0.0849704
-0.0848549
-0.0844081
-0.0836404
-0.0825628
-0.081187
-0.0795252
-0.0775901
-0.0753949
-0.072953
-0.0702783
-0.0673846
-0.064286
-0.0609963
-0.0575297
-0.0538998
-0.0501202
-0.0462044
-0.0421654
-0.0380162
-0.0337691
-0.0294366
-0.0250306
-0.0205629
-0.016045
-0.0114884
-0.00690419
-0.00230325
0.00231371
0.00693525
0.0115402
0.016118
0.0206568
0.0251455
0.0295726
0.0339262
0.0381944
0.0423648
0.046425
0.050362
0.0541626
0.0578135
0.0613009
0.0646109
0.0677297
0.0706431
0.073337
0.0757972
0.0780101
0.0799619
0.0816394
0.0830297
0.0841207
0.0849006
0.0853581
0.085483
0.0852655
0.0846965
0.0837682
0.0824736
0.0808074
0.0787661
0.0763488
0.0735572
0.0703967
0.0668757
0.0630064
0.0588034
0.0542838
0.0494657
0.0443684
0.0390128
0.0334233
0.0276293
0.0216652
0.0155686
0.00937823
0.00313231
-0.00313201
-0.00937794
-0.0155683
-0.0216649
-0.027629
-0.033423
-0.0390124
-0.0443681
-0.0494654
-0.0542835
-0.0588031
-0.0630061
-0.0668755
-0.0703964
-0.073557
-0.0763486
-0.0787659
-0.0808072
-0.0824734
-0.083768
-0.0846964
-0.0852653
-0.0854829
-0.0853581
-0.0849005
-0.0841207
-0.0830298
-0.0816394
-0.0799619
-0.0780102
-0.0757974
-0.0733371
-0.0706433
-0.0677299
-0.0646111
-0.061301
-0.0578136
-0.0541627
-0.050362
-0.046425
-0.0423648
-0.0381943
-0.0339261
-0.0295725
-0.0251455
-0.0206567
-0.0161179
-0.0115403
-0.0069354
-0.00231373
0.00233451
0.00699783
0.0116445
0.0162639
0.0208446
0.0253753
0.0298445
0.0342404
0.038551
0.0427639
0.0468665
0.050846
0.0546889
0.0583818
0.0619109
0.0652622
0.0684214
0.0713742
0.0741064
0.0766036
0.0788517
0.080837
0.082546
0.0839656
0.0850834
0.0858876
0.0863667
0.0865104
0.0863087
0.0857522
0.0848325
0.0835422
0.0818749
0.0798263
0.0773945
0.0745808
0.0713899
0.0678311
0.0639169
0.0596637
0.0550897
0.0502135
0.0450532
0.039627
0.0339571
0.0280731
0.0220122
0.0158158
0.00952579
0.0031813
-0.003181
-0.0095255
-0.0158155
-0.0220119
-0.0280728
-0.0339568
-0.0396267
-0.0450529
-0.0502132
-0.0550894
-0.0596634
-0.0639167
-0.0678308
-0.0713897
-0.0745805
-0.0773943
-0.0798261
-0.0818747
-0.083542
-0.0848324
-0.0857521
-0.0863086
-0.0865104
-0.0863667
-0.0858875
-0.0850834
-0.0839656
-0.082546
-0.0808371
-0.0788519
-0.0766037
-0.0741065
-0.0713744
-0.0684215
-0.0652623
-0.061911
-0.0583819
-0.054689
-0.050846
-0.0468666
-0.0427639
-0.0385509
-0.0342404
-0.0298444
-0.0253753
-0.0208447
-0.0162639
-0.0116444
-0.00699767
-0.00233445
0.00236567
0.0070915
0.0118009
0.016483
0.0211266
0.0257204
0.0302528
0.0347123
0.0390865
0.0433633
0.0475298
0.0515731
0.0554797
0.059236
0.0628279
0.0662411
0.0694613
0.0724737
0.0752636
0.0778166
0.0801182
0.082154
0.0839104
0.0853741
0.0865324
0.0873731
0.087885
0.0880572
0.0878796
0.0873424
0.0864366
0.0851536
0.0834858
0.0814274
0.0789746
0.0761278
0.0728911
0.0692742
0.0652912
0.060961
0.0563047
0.0513428
0.046091
0.0405615
0.0347706
0.028748
0.0225369
0.0161872
0.00974609
0.00325419
-0.00325386
-0.0097458
-0.0161869
-0.0225366
-0.0287477
-0.0347704
-0.0405612
-0.0460907
-0.0513425
-0.0563044
-0.0609606
-0.0652909
-0.0692739
-0.0728909
-0.0761275
-0.0789744
-0.0814271
-0.0834857
-0.0851534
-0.0864364
-0.0873423
-0.0878794
-0.0880571
-0.0878849
-0.0873731
-0.0865324
-0.0853741
-0.0839105
-0.0821541
-0.0801183
-0.0778168
-0.0752638
-0.0724738
-0.0694614
-0.0662413
-0.062828
-0.0592361
-0.0554798
-0.0515731
-0.0475298
-0.0433632
-0.0390865
-0.0347122
-0.0302528
-0.0257203
-0.0211266
-0.016483
-0.0118009
-0.00709138
-0.00236565
0.00240733
0.00721658
0.0120096
0.0167754
0.0215029
0.0261809
0.030798
0.0353422
0.0398016
0.0441638
0.0484159
0.0525447
0.0565366
0.0603778
0.064054
0.0675504
0.0708524
0.0739449
0.0768127
0.0794406
0.0818139
0.0839178
0.085738
0.087261
0.0884735
0.0893635
0.0899192
0.0901299
0.0899851
0.0894748
0.0885891
0.0873179
0.0856519
0.0835825
0.0811036
0.0782131
0.0749146
0.0712179
0.0671393
0.062702
0.057934
0.0528609
0.0474951
0.0418352
0.0358827
0.0296661
0.0232434
0.0166809
0.0100358
0.00334948
-0.00334914
-0.0100355
-0.0166806
-0.0232431
-0.0296658
-0.0358824
-0.0418349
-0.0474948
-0.0528606
-0.0579337
-0.0627017
-0.067139
-0.0712176
-0.0749143
-0.0782129
-0.0811034
-0.0835822
-0.0856517
-0.0873177
-0.0885889
-0.0894747
-0.089985
-0.0901298
-0.0899192
-0.0893634
-0.0884735
-0.087261
-0.0857381
-0.0839179
-0.081814
-0.0794408
-0.0768128
-0.073945
-0.0708526
-0.0675506
-0.0640541
-0.0603779
-0.0565367
-0.0525447
-0.0484159
-0.0441638
-0.0398016
-0.0353422
-0.0307979
-0.0261808
-0.0215028
-0.0167754
-0.0120096
-0.00721653
-0.00240732
0.00245949
0.00737311
0.0122707
0.0171413
0.0219739
0.0267575
0.0314805
0.0361311
0.0406973
0.0451666
0.0495261
0.0537624
0.0578616
0.0618098
0.065592
0.0691935
0.0725988
0.0757924
0.0787585
0.0814814
0.0839454
0.0861353
0.0880362
0.0896339
0.0909149
0.0918668
0.0924778
0.0927372
0.0926345
0.0921594
0.0913012
0.0900484
0.0883887
0.0863099
0.0838016
0.0808581
0.077481
0.0736805
0.0694753
0.0648939
0.0599792
0.0547726
0.0492838
0.043481
0.0373269
0.0308467
0.0241336
0.0172889
0.0103858
0.00346331
-0.00346297
-0.0103855
-0.0172886
-0.0241333
-0.0308465
-0.0373266
-0.0434807
-0.0492835
-0.0547723
-0.0599789
-0.0648936
-0.069475
-0.0736803
-0.0774807
-0.0808579
-0.0838014
-0.0863097
-0.0883885
-0.0900482
-0.091301
-0.0921593
-0.0926344
-0.0927371
-0.0924778
-0.0918668
-0.0909149
-0.0896339
-0.0880362
-0.0861354
-0.0839455
-0.0814815
-0.0787586
-0.0757925
-0.072599
-0.0691937
-0.0655922
-0.0618099
-0.0578617
-0.0537624
-0.0495261
-0.0451666
-0.0406973
-0.0361311
-0.0314804
-0.0267574
-0.0219739
-0.0171413
-0.0122707
-0.00737313
-0.00245949
0.00252219
0.00756124
0.0125844
0.017581
0.02254
0.0274505
0.032301
0.0370797
0.0417746
0.0463731
0.0508622
0.0552282
0.0594573
0.0635348
0.0674457
0.0711745
0.0747052
0.0780218
0.0811075
0.0839459
0.0865205
0.0888151
0.0908141
0.0925026
0.0938665
0.0948933
0.0955711
0.0958894
0.0958382
0.0954074
0.094586
0.0933608
0.0917159
0.0896335
0.0870962
0.084092
0.080619
0.0766886
0.0723196
0.0675425
0.06243
0.0570702
0.0514793
0.0455598
0.0391674
0.0323182
0.0252005
0.0179878
0.0107747
0.00358742
-0.00358708
-0.0107743
-0.0179875
-0.0252002
-0.032318
-0.0391671
-0.0455595
-0.051479
-0.0570699
-0.0624297
-0.0675422
-0.0723193
-0.0766883
-0.0806187
-0.0840917
-0.087096
-0.0896332
-0.0917157
-0.0933607
-0.0945859
-0.0954073
-0.0958381
-0.0958894
-0.0955711
-0.0948933
-0.0938665
-0.0925026
-0.0908141
-0.0888152
-0.0865206
-0.083946
-0.0811077
-0.0780219
-0.0747054
-0.0711746
-0.0674458
-0.0635349
-0.0594574
-0.0552283
-0.0508621
-0.0463731
-0.0417746
-0.0370797
-0.0323009
-0.0274504
-0.0225399
-0.0175809
-0.0125844
-0.00756124
-0.00252217
0.0025954
0.00778099
0.012951
0.0180947
0.0232015
0.0282604
0.0332602
0.038189
0.0430347
0.0477847
0.052426
0.0569446
0.0613264
0.0655563
0.069619
0.0734983
0.0771775
0.0806397
0.0838674
0.086843
0.0895489
0.0919679
0.0940832
0.095879
0.0973408
0.0984555
0.0992114
0.0995985
0.099608
0.0992312
0.0984575
0.0972726
0.0956565
0.0935831
0.0910236
0.0879542
0.0843668
0.08028
0.0757082
0.0706531
0.0652449
0.0597054
0.0540992
0.048196
0.0415374
0.0341181
0.0264092
0.0187206
0.0111576
0.00370536
-0.00370503
-0.0111573
-0.0187202
-0.0264088
-0.0341178
-0.0415371
-0.0481958
-0.0540989
-0.0597051
-0.0652446
-0.0706528
-0.075708
-0.0802797
-0.0843666
-0.087954
-0.0910234
-0.0935829
-0.0956563
-0.0972725
-0.0984574
-0.0992311
-0.0996079
-0.0995984
-0.0992113
-0.0984555
-0.0973409
-0.0958791
-0.0940832
-0.091968
-0.089549
-0.0868431
-0.0838675
-0.0806398
-0.0771777
-0.0734984
-0.0696192
-0.0655564
-0.0613265
-0.0569447
-0.052426
-0.0477847
-0.0430347
-0.0381889
-0.0332601
-0.0282604
-0.0232015
-0.0180947
-0.012951
-0.007781
-0.0025954
0.00267918
0.00803249
0.0133705
0.0186828
0.0239589
0.029188
0.0343588
0.0394598
0.0444788
0.0494031
0.0542195
0.0589141
0.0634721
0.0678783
0.0721166
0.0761704
0.0800221
0.0836539
0.087047
0.0901828
0.0930421
0.0956063
0.0978572
0.0997779
0.101353
0.102568
0.103413
0.103878
0.103956
0.103642
0.102928
0.101801
0.100236
0.0981956
0.0956321
0.0924994
0.0887718
0.0845059
0.0797209
0.0742478
0.0683119
0.0625173
0.0571156
0.0516759
0.0447438
0.0362698
0.0276457
0.019362
0.0114503
0.00378825
-0.00378792
-0.0114499
-0.0193616
-0.0276454
-0.0362695
-0.0447435
-0.0516756
-0.0571153
-0.062517
-0.0683116
-0.0742475
-0.0797207
-0.0845056
-0.0887716
-0.0924991
-0.0956319
-0.0981954
-0.100235
-0.101801
-0.102928
-0.103642
-0.103956
-0.103878
-0.103413
-0.102568
-0.101353
-0.0997779
-0.0978573
-0.0956064
-0.0930422
-0.0901829
-0.0870472
-0.083654
-0.0800223
-0.0761705
-0.0721168
-0.0678784
-0.0634722
-0.0589141
-0.0542195
-0.0494031
-0.0444787
-0.0394597
-0.0343588
-0.0291879
-0.0239589
-0.0186828
-0.0133705
-0.00803247
-0.00267918
0.00277358
0.00831579
0.0138431
0.0193454
0.0248124
0.0302334
0.0355975
0.0408931
0.0461081
0.0512299
0.0562449
0.0611392
0.0658977
0.0705047
0.0749436
0.0791969
0.0832464
0.0870728
0.0906565
0.0939769
0.0970134
0.0997452
0.102152
0.104216
0.10592
0.10725
0.108193
0.108742
0.108894
0.108649
0.108007
0.106958
0.105477
0.103515
0.100987
0.0978104
0.0938787
0.0894061
0.0845678
0.078441
0.0713623
0.0650502
0.0602734
0.0567411
0.0495722
0.0386368
0.0285917
0.0196664
0.0115139
0.00379225
-0.0037919
-0.0115136
-0.0196661
-0.0285914
-0.0386365
-0.0495719
-0.0567408
-0.0602732
-0.0650499
-0.071362
-0.0784408
-0.0845675
-0.0894058
-0.0938784
-0.0978102
-0.100987
-0.103515
-0.105477
-0.106958
-0.108007
-0.108649
-0.108894
-0.108742
-0.108193
-0.10725
-0.10592
-0.104216
-0.102152
-0.0997453
-0.0970135
-0.093977
-0.0906566
-0.087073
-0.0832465
-0.0791971
-0.0749438
-0.0705049
-0.0658978
-0.0611393
-0.056245
-0.0512299
-0.0461081
-0.0408931
-0.0355975
-0.0302334
-0.0248124
-0.0193454
-0.0138431
-0.00831578
-0.00277356
0.00287857
0.00863095
0.0143689
0.0200827
0.0257622
0.0313973
0.0369769
0.0424898
0.0479239
0.0532666
0.0585043
0.0636228
0.0686067
0.0734399
0.0781052
0.0825843
0.086858
0.090906
0.094707
0.0982386
0.101478
0.104402
0.106988
0.109215
0.111065
0.112522
0.113573
0.11421
0.114434
0.114257
0.113693
0.112747
0.111394
0.109589
0.107177
0.104055
0.0996968
0.0948338
0.0908556
0.0837276
0.0737744
0.0661645
0.0622943
0.0655428
0.058254
0.0401818
0.0284689
0.0192333
0.0111676
0.00366557
-0.00366523
-0.0111672
-0.019233
-0.0284685
-0.0401814
-0.0582537
-0.0655425
-0.062294
-0.0661643
-0.0737742
-0.0837273
-0.0908553
-0.0948336
-0.0996966
-0.104054
-0.107177
-0.109589
-0.111394
-0.112747
-0.113693
-0.114257
-0.114434
-0.11421
-0.113573
-0.112522
-0.111065
-0.109215
-0.106988
-0.104402
-0.101478
-0.0982387
-0.0947071
-0.0909062
-0.0868582
-0.0825844
-0.0781053
-0.0734401
-0.0686068
-0.0636229
-0.0585044
-0.0532666
-0.0479239
-0.0424898
-0.0369769
-0.0313973
-0.0257622
-0.0200827
-0.0143689
-0.00863093
-0.00287855
0.00299416
0.00897795
0.0149479
0.0208947
0.0268086
0.0326797
0.0384974
0.0442505
0.0499271
0.0555147
0.0609996
0.0663674
0.0716024
0.0766881
0.0816067
0.0863391
0.0908652
0.0951633
0.0992106
0.102982
0.106453
0.109597
0.112387
0.114799
0.116813
0.118411
0.119579
0.120303
0.120588
0.120464
0.11997
0.119149
0.117966
0.11647
0.11427
0.111721
0.106199
0.0995456
0.100454
0.0919874
0.0739746
0.0636571
0.0573063
0.0532338
0.0460582
0.0354374
0.0259192
0.0176648
0.0102775
0.00337434
-0.003374
-0.0102771
-0.0176644
-0.0259188
-0.0354371
-0.0460579
-0.0532336
-0.057306
-0.0636569
-0.0739744
-0.0919872
-0.100454
-0.0995454
-0.106198
-0.11172
-0.114269
-0.11647
-0.117966
-0.119149
-0.11997
-0.120464
-0.120588
-0.120303
-0.119579
-0.118411
-0.116813
-0.114799
-0.112387
-0.109597
-0.106453
-0.102983
-0.0992107
-0.0951635
-0.0908654
-0.0863393
-0.0816068
-0.0766883
-0.0716026
-0.0663675
-0.0609997
-0.0555147
-0.0499271
-0.0442505
-0.0384974
-0.0326798
-0.0268086
-0.0208947
-0.0149479
-0.00897791
-0.00299416
0.00312033
0.00935671
0.01558
0.0217814
0.0279515
0.0340808
0.0401592
0.0461756
0.0521185
0.0579753
0.0637325
0.0693753
0.0748881
0.0802535
0.0854535
0.090468
0.0952761
0.0998549
0.10418
0.108224
0.111959
0.115353
0.118375
0.120997
0.123194
0.124951
0.126249
0.127058
0.12737
0.127262
0.12679
0.126129
0.125061
0.124262
0.121913
0.122557
0.114018
0.0968707
0.087842
0.0781928
0.0666102
0.0572962
0.0501415
0.0441214
0.0373882
0.0296531
0.0221517
0.015261
0.0089217
0.00293437
-0.00293402
-0.00892134
-0.0152607
-0.0221514
-0.0296527
-0.0373879
-0.0441211
-0.0501412
-0.0572959
-0.0666099
-0.0781926
-0.0878418
-0.0968705
-0.114018
-0.122557
-0.121913
-0.124262
-0.125061
-0.126129
-0.12679
-0.127262
-0.127369
-0.127058
-0.126249
-0.124951
-0.123194
-0.120997
-0.118375
-0.115353
-0.111959
-0.108224
-0.10418
-0.0998551
-0.0952763
-0.0904682
-0.0854536
-0.0802537
-0.0748882
-0.0693755
-0.0637326
-0.0579754
-0.0521185
-0.0461756
-0.0401592
-0.0340809
-0.0279515
-0.0217814
-0.0155801
-0.00935671
-0.00312033
0.00325705
0.00976714
0.016265
0.0227424
0.0291906
0.0356004
0.0419621
0.0482653
0.0544984
0.0606493
0.0667043
0.0726487
0.0784664
0.08414
0.0896504
0.0949773
0.100099
0.104991
0.109627
0.11398
0.118015
0.121696
0.124985
0.127843
0.130243
0.132179
0.133639
0.134541
0.1348
0.134654
0.134027
0.133739
0.13211
0.133822
0.126777
0.111028
0.098882
0.0862471
0.0760045
0.0664694
0.0570957
0.0488787
0.041932
0.0358009
0.0297871
0.0236882
0.0178137
0.0123337
0.00723032
0.00238082
-0.00238049
-0.00722998
-0.0123334
-0.0178134
-0.0236879
-0.0297868
-0.0358006
-0.0419318
-0.0488785
-0.0570954
-0.0664692
-0.0760043
-0.0862469
-0.0988818
-0.111028
-0.126777
-0.133822
-0.13211
-0.133739
-0.134027
-0.134654
-0.1348
-0.134541
-0.133639
-0.132179
-0.130243
-0.127842
-0.124985
-0.121696
-0.118015
-0.11398
-0.109628
-0.104991
-0.100099
-0.0949775
-0.0896506
-0.0841401
-0.0784665
-0.0726488
-0.0667044
-0.0606494
-0.0544985
-0.0482653
-0.0419622
-0.0356004
-0.0291906
-0.0227424
-0.0162651
-0.00976714
-0.00325705
0.00340424
0.010209
0.0170026
0.0237773
0.0305253
0.0372378
0.0439058
0.0505191
0.0570669
0.0635369
0.0699159
0.076189
0.0823399
0.0883507
0.094202
0.0998727
0.10534
0.11058
0.115565
0.120265
0.124644
0.128658
0.132255
0.135379
0.137995
0.140122
0.141826
0.14291
0.142875
0.142764
0.141162
0.142923
0.136047
0.120609
0.108803
0.0960889
0.0844084
0.0733836
0.0635949
0.054704
0.0465276
0.0392802
0.0329837
0.027429
0.0223258
0.0175428
0.0131145
0.00905279
0.00529864
0.00174356
-0.00174323
-0.00529831
-0.00905247
-0.0131142
-0.0175425
-0.0223255
-0.0274287
-0.0329835
-0.03928
-0.0465273
-0.0547038
-0.0635947
-0.0733834
-0.0844082
-0.0960887
-0.108803
-0.120609
-0.136047
-0.142923
-0.141162
-0.142764
-0.142875
-0.14291
-0.141826
-0.140122
-0.137995
-0.135379
-0.132255
-0.128658
-0.124644
-0.120265
-0.115565
-0.11058
-0.10534
-0.0998728
-0.0942022
-0.0883509
-0.0823401
-0.0761891
-0.069916
-0.063537
-0.0570669
-0.0505192
-0.0439058
-0.0372378
-0.0305253
-0.0237774
-0.0170026
-0.010209
-0.00340421
0.00356176
0.0106819
0.017792
0.0248854
0.0319547
0.0389921
0.0459891
0.0529362
0.059823
0.0666378
0.0733674
0.079997
0.0865101
0.0928885
0.099112
0.105159
0.111006
0.116629
0.122002
0.127093
0.131867
0.136272
0.140237
0.143668
0.146482
0.148737
0.150885
0.152649
0.151277
0.152614
0.145177
0.129232
0.11702
0.103975
0.0919274
0.0802853
0.0694292
0.0594159
0.0504028
0.0423243
0.0351165
0.0288044
0.0233559
0.0186578
0.0145869
0.0110766
0.00807426
0.00548219
0.00317833
0.00104146
-0.00104111
-0.003178
-0.00548188
-0.00807394
-0.0110763
-0.0145867
-0.0186576
-0.0233556
-0.0288041
-0.0351162
-0.0423241
-0.0504026
-0.0594157
-0.0694289
-0.0802851
-0.0919272
-0.103975
-0.11702
-0.129232
-0.145177
-0.152614
-0.151277
-0.152648
-0.150885
-0.148737
-0.146482
-0.143668
-0.140237
-0.136272
-0.131867
-0.127093
-0.122002
-0.116629
-0.111006
-0.105159
-0.0991122
-0.0928887
-0.0865103
-0.0799971
-0.0733675
-0.0666379
-0.0598231
-0.0529363
-0.0459891
-0.0389921
-0.0319547
-0.0248855
-0.0177921
-0.0106818
-0.00356171
0.00372942
0.0111854
0.0186327
0.0260656
0.0334776
0.0408618
0.0482106
0.055515
0.0627655
0.0699508
0.0770581
0.0840728
0.0909781
0.0977553
0.104384
0.110841
0.117102
0.123144
0.128942
0.13447
0.139696
0.14457
0.149003
0.152831
0.155788
0.15772
0.160594
0.165787
0.157232
0.139741
0.126191
0.112031
0.0990304
0.0865259
0.0748093
0.0638398
0.053733
0.0445575
0.0363702
0.0291541
0.0228774
0.0175216
0.0130244
0.00929756
0.00631804
0.00412592
0.00264114
0.00163541
0.000898088
0.000287356
-0.000287049
-0.00089776
-0.00163509
-0.00264085
-0.00412563
-0.00631776
-0.00929728
-0.0130241
-0.0175214
-0.0228772
-0.0291539
-0.03637
-0.0445573
-0.0537328
-0.0638395
-0.0748091
-0.0865257
-0.0990303
-0.11203
-0.12619
-0.139741
-0.157232
-0.165787
-0.160594
-0.15772
-0.155787
-0.152831
-0.149003
-0.14457
-0.139696
-0.13447
-0.128942
-0.123144
-0.117102
-0.110841
-0.104384
-0.0977555
-0.0909782
-0.0840729
-0.0770582
-0.0699509
-0.0627656
-0.0555151
-0.0482106
-0.0408619
-0.0334776
-0.0260656
-0.0186328
-0.0111853
-0.00372939
0.00390702
0.0117188
0.0195236
0.0273165
0.0350923
0.0428449
0.0505678
0.0582531
0.0658919
0.0734737
0.0809862
0.0884152
0.0957437
0.102952
0.11002
0.116921
0.123632
0.130127
0.136386
0.142392
0.148128
0.153567
0.158638
0.163132
0.166389
0.166034
0.168261
0.161195
0.140633
0.123167
0.108033
0.0938661
0.0807205
0.0684438
0.0570797
0.046649
0.0372065
0.028796
0.0214376
0.0151036
0.00976527
0.00541852
0.00195237
-0.000787031
-0.00272123
-0.00351977
-0.00326229
-0.00247396
-0.0015054
-0.000501962
0.000502269
0.0015057
0.00247427
0.00326259
0.00352006
0.00272151
0.000787296
-0.00195207
-0.00541826
-0.00976505
-0.0151034
-0.0214374
-0.0287958
-0.0372063
-0.0466488
-0.0570796
-0.0684436
-0.0807203
-0.0938659
-0.108032
-0.123167
-0.140633
-0.161195
-0.168261
-0.166034
-0.166389
-0.163132
-0.158638
-0.153567
-0.148128
-0.142392
-0.136386
-0.130127
-0.123632
-0.116921
-0.11002
-0.102953
-0.0957438
-0.0884153
-0.0809863
-0.0734738
-0.065892
-0.0582532
-0.0505679
-0.042845
-0.0350923
-0.0273165
-0.0195236
-0.0117187
-0.00390701
0.00409435
0.0122814
0.0204633
0.0286363
0.0367963
0.0449387
0.0530579
0.0611471
0.0691987
0.077203
0.0851486
0.0930217
0.100806
0.10848
0.116022
0.123405
0.1306
0.137581
0.144327
0.150835
0.157117
0.163201
0.169125
0.174954
0.180889
0.17205
0.153746
0.138614
0.121179
0.104476
0.089097
0.0748479
0.0616876
0.0495749
0.038524
0.0285599
0.0197219
0.0120424
0.00552767
9.3523e-05
-0.00431175
-0.00754643
-0.00983425
-0.0116701
-0.0128937
-0.0122214
-0.00969735
-0.00676434
-0.00394429
-0.00129228
0.00129255
0.00394459
0.00676462
0.00969763
0.0122217
0.0128939
0.0116704
0.00983452
0.00754667
0.004312
-9.32901e-05
-0.00552747
-0.0120422
-0.0197217
-0.0285597
-0.0385239
-0.0495748
-0.0616874
-0.0748478
-0.0890968
-0.104476
-0.121179
-0.138613
-0.153746
-0.17205
-0.180889
-0.174954
-0.169125
-0.163201
-0.157117
-0.150835
-0.144327
-0.137581
-0.1306
-0.123405
-0.116022
-0.10848
-0.100806
-0.0930218
-0.0851487
-0.0772031
-0.0691987
-0.0611472
-0.0530579
-0.0449388
-0.0367964
-0.0286363
-0.0204633
-0.0122813
-0.00409433
0.00429106
0.0128723
0.0214503
0.0300228
0.0385871
0.0471398
0.0556767
0.0641926
0.072681
0.0811337
0.0895404
0.097888
0.106161
0.114338
0.122394
0.130299
0.138016
0.145512
0.152762
0.159769
0.166578
0.173276
0.179998
0.186966
0.17871
0.156062
0.136322
0.118573
0.101205
0.0846468
0.0691906
0.0548776
0.0417222
0.0297397
0.0189587
0.00940515
0.00112466
-0.00584355
-0.0114413
-0.0159335
-0.0195554
-0.0214604
-0.0220797
-0.0231762
-0.0249756
-0.0227886
-0.0165524
-0.0109494
-0.00621966
-0.00201679
0.00201707
0.00621992
0.0109496
0.0165527
0.0227889
0.0249759
0.0231765
0.02208
0.0214606
0.0195556
0.0159338
0.0114415
0.00584375
-0.00112445
-0.00940495
-0.0189585
-0.0297395
-0.0417221
-0.0548775
-0.0691904
-0.0846467
-0.101204
-0.118573
-0.136321
-0.156062
-0.17871
-0.186966
-0.179998
-0.173276
-0.166578
-0.159769
-0.152762
-0.145512
-0.138017
-0.130299
-0.122394
-0.114338
-0.106161
-0.0978881
-0.0895404
-0.0811338
-0.0726811
-0.0641927
-0.0556768
-0.0471398
-0.0385871
-0.0300228
-0.0214503
-0.0128722
-0.00429106
0.00449681
0.0134902
0.0224827
0.0314734
0.0404611
0.049444
0.0584195
0.067384
0.0763326
0.0852589
0.0941542
0.103007
0.111803
0.120521
0.129136
0.13761
0.145899
0.153945
0.161705
0.169178
0.176438
0.183623
0.190931
0.182755
0.159463
0.137431
0.11714
0.0983586
0.0805981
0.0638681
0.0482685
0.0338541
0.020667
0.00876621
-0.00178863
-0.010993
-0.0187692
-0.0250961
-0.0295216
-0.032845
-0.0365365
-0.0366846
-0.0338746
-0.0340086
-0.0410766
-0.0374354
-0.0227963
-0.0142754
-0.00797633
-0.00257499
0.00257523
0.00797659
0.0142757
0.0227966
0.0374356
0.0410768
0.0340088
0.0338748
0.0366848
0.0365367
0.0328452
0.0295218
0.0250963
0.0187694
0.0109932
0.00178881
-0.00876605
-0.0206668
-0.0338539
-0.0482683
-0.0638679
-0.0805979
-0.0983585
-0.11714
-0.137431
-0.159463
-0.182755
-0.190931
-0.183623
-0.176438
-0.169178
-0.161705
-0.153945
-0.145899
-0.137611
-0.129136
-0.120521
-0.111803
-0.103007
-0.0941543
-0.085259
-0.0763327
-0.067384
-0.0584195
-0.049444
-0.0404611
-0.0314734
-0.0224827
-0.0134902
-0.00449681
0.00471113
0.014134
0.0235584
0.032985
0.0424144
0.0518464
0.0612803
0.0707142
0.0801455
0.0895696
0.0989804
0.108369
0.117722
0.127023
0.136245
0.145351
0.154278
0.162933
0.171212
0.17909
0.186672
0.194155
0.185908
0.162205
0.139227
0.117295
0.0966537
0.077297
0.0591066
0.0420776
0.0262548
0.0116737
-0.00162589
-0.0135238
-0.0238744
-0.0328227
-0.0401287
-0.0462773
-0.0487389
-0.0494294
-0.0571084
-0.0549157
-0.042771
-0.0379534
-0.0361845
-0.0313729
-0.0229539
-0.0153996
-0.00884632
-0.00288557
0.00288583
0.00884658
0.0153998
0.0229541
0.0313732
0.0361847
0.0379536
0.0427713
0.0549159
0.0571087
0.0494296
0.0487391
0.0462775
0.0401289
0.0328229
0.0238745
0.013524
0.00162606
-0.0116735
-0.0262547
-0.0420775
-0.0591064
-0.0772969
-0.0966535
-0.117295
-0.139227
-0.162205
-0.185908
-0.194155
-0.186671
-0.17909
-0.171212
-0.162933
-0.154278
-0.145351
-0.136246
-0.127023
-0.117722
-0.108369
-0.0989805
-0.0895697
-0.0801455
-0.0707143
-0.0612803
-0.0518464
-0.0424144
-0.032985
-0.0235584
-0.014134
-0.00471114
0.00493358
0.0148021
0.0246748
0.0345542
0.0444424
0.0543413
0.0642521
0.0741751
0.0841099
0.0940547
0.104006
0.113958
0.123902
0.133826
0.143711
0.153523
0.163194
0.172576
0.181414
0.1896
0.197317
0.188981
0.164892
0.141203
0.118182
0.0960708
0.0750531
0.0552089
0.0365645
0.0191645
0.00305761
-0.011754
-0.0253075
-0.0373677
-0.0473859
-0.056333
-0.062696
-0.0712062
-0.0697931
-0.0590929
-0.0558722
-0.0514163
-0.0444007
-0.0389031
-0.0343866
-0.0289629
-0.0222795
-0.0155448
-0.00913651
-0.0030109
0.00301118
0.00913674
0.015545
0.0222797
0.0289631
0.0343869
0.0389034
0.0444009
0.0514165
0.0558724
0.0590932
0.0697934
0.0712064
0.0626962
0.0563332
0.047386
0.0373679
0.0253077
0.0117541
-0.00305743
-0.0191643
-0.0365643
-0.0552088
-0.0750529
-0.0960706
-0.118182
-0.141203
-0.164892
-0.188981
-0.197317
-0.1896
-0.181414
-0.172576
-0.163194
-0.153523
-0.143711
-0.133826
-0.123902
-0.113958
-0.104006
-0.0940547
-0.08411
-0.0741752
-0.0642521
-0.0543414
-0.0444424
-0.0345542
-0.0246749
-0.0148021
-0.00493359
0.00516357
0.0154931
0.0258294
0.0361771
0.0465401
0.0569224
0.0673273
0.0777573
0.0882147
0.0987005
0.109215
0.119756
0.13032
0.140902
0.151497
0.162099
0.172679
0.183055
0.192573
0.200896
0.192582
0.168116
0.14375
0.119774
0.0964301
0.0739222
0.0524146
0.0320253
0.0128521
-0.00499521
-0.0214145
-0.0364429
-0.0505077
-0.0632985
-0.0720296
-0.0825033
-0.0832026
-0.0743986
-0.0684735
-0.0613612
-0.055951
-0.0505505
-0.0445765
-0.0389283
-0.0335461
-0.0278549
-0.0216891
-0.0153862
-0.00915742
-0.00303716
0.00303741
0.00915764
0.0153864
0.0216893
0.0278551
0.0335463
0.0389286
0.0445767
0.0505508
0.0559512
0.0613615
0.0684737
0.0743988
0.0832028
0.0825035
0.0720298
0.0632987
0.0505079
0.0364431
0.0214147
0.00499539
-0.0128519
-0.0320251
-0.0524145
-0.0739221
-0.0964299
-0.119774
-0.14375
-0.168116
-0.192582
-0.200896
-0.192573
-0.183055
-0.172679
-0.162099
-0.151497
-0.140902
-0.13032
-0.119756
-0.109215
-0.0987006
-0.0882148
-0.0777574
-0.0673273
-0.0569225
-0.0465402
-0.0361771
-0.0258295
-0.015493
-0.00516356
0.00540057
0.016205
0.0270192
0.0378496
0.0487021
0.0595829
0.0704973
0.0814504
0.0924472
0.103492
0.114589
0.125739
0.136946
0.148208
0.159536
0.170975
0.182658
0.194699
0.205247
0.197401
0.172556
0.14743
0.122461
0.0979198
0.0740105
0.0509066
0.0287569
0.00769203
-0.0121502
-0.0305755
-0.0472963
-0.0621386
-0.0770476
-0.0933753
-0.0950312
-0.0868052
-0.0815719
-0.0748193
-0.0684403
-0.0620169
-0.0561021
-0.0503329
-0.0444922
-0.0387454
-0.0330645
-0.0272629
-0.0212681
-0.0151766
-0.00908349
-0.00302229
0.00302252
0.00908371
0.0151768
0.0212683
0.0272631
0.0330647
0.0387456
0.0444924
0.0503331
0.0561023
0.0620172
0.0684405
0.0748195
0.0815721
0.0868053
0.0950314
0.0933755
0.0770477
0.0621388
0.0472965
0.0305757
0.0121503
-0.00769185
-0.0287568
-0.0509064
-0.0740103
-0.0979196
-0.122461
-0.14743
-0.172556
-0.197401
-0.205247
-0.194698
-0.182658
-0.170975
-0.159536
-0.148209
-0.136946
-0.125739
-0.114589
-0.103492
-0.0924473
-0.0814505
-0.0704973
-0.0595829
-0.0487022
-0.0378496
-0.0270192
-0.016205
-0.00540056
0.00564393
0.0169361
0.0282411
0.0395672
0.0509227
0.0623154
0.0737532
0.0852436
0.0967941
0.108413
0.120107
0.131885
0.143751
0.155703
0.167736
0.179892
0.192586
0.208156
0.204894
0.17947
0.153099
0.126834
0.100953
0.0756031
0.0509179
0.0270325
0.00407531
-0.0178366
-0.0385736
-0.0578942
-0.0751171
-0.087852
-0.102277
-0.106497
-0.096292
-0.0882405
-0.08158
-0.0749768
-0.068553
-0.0622566
-0.0561917
-0.0502623
-0.0443813
-0.0385551
-0.0327537
-0.0269056
-0.0209762
-0.0149919
-0.0089915
-0.00299567
0.00299588
0.00899168
0.0149921
0.0209764
0.0269058
0.032754
0.0385553
0.0443815
0.0502625
0.0561919
0.0622568
0.0685532
0.074977
0.0815802
0.0882407
0.0962922
0.106498
0.102277
0.0878522
0.0751173
0.0578943
0.0385738
0.0178368
-0.00407511
-0.0270323
-0.0509177
-0.0756029
-0.100953
-0.126834
-0.153099
-0.17947
-0.204893
-0.208156
-0.192586
-0.179892
-0.167736
-0.155703
-0.143751
-0.131885
-0.120107
-0.108413
-0.0967942
-0.0852436
-0.0737533
-0.0623155
-0.0509227
-0.0395672
-0.0282411
-0.0169361
-0.00564393
0.005893
0.0176844
0.0294917
0.0413255
0.0531958
0.0651127
0.077086
0.0891255
0.101241
0.113445
0.12575
0.138169
0.150714
0.163379
0.176094
0.188573
0.199955
0.209029
0.195275
0.162783
0.133789
0.10607
0.0790885
0.0527555
0.0271207
0.0022875
-0.0216307
-0.0445541
-0.0664603
-0.0873878
-0.107531
-0.112001
-0.106098
-0.102441
-0.095541
-0.0884159
-0.0816527
-0.0750676
-0.0686419
-0.0623594
-0.0562314
-0.0502206
-0.0442838
-0.0383996
-0.0325405
-0.0266713
-0.0207719
-0.0148464
-0.00890895
-0.00296943
0.00296962
0.00890913
0.0148466
0.0207721
0.0266715
0.0325407
0.0383998
0.044284
0.0502208
0.0562316
0.0623597
0.0686421
0.0750678
0.0816529
0.0884161
0.0955412
0.102442
0.106098
0.112001
0.107531
0.087388
0.0664605
0.0445543
0.0216309
-0.00228732
-0.0271205
-0.0527553
-0.0790883
-0.106069
-0.133789
-0.162782
-0.195275
-0.209029
-0.199955
-0.188573
-0.176094
-0.163379
-0.150714
-0.138169
-0.12575
-0.113445
-0.101242
-0.0891255
-0.077086
-0.0651128
-0.0531958
-0.0413255
-0.0294918
-0.0176844
-0.00589302
0.00614714
0.0184479
0.0307679
0.0431197
0.0555155
0.0679673
0.0804868
0.0930854
0.105776
0.118572
0.131493
0.144561
0.157811
0.17128
0.184983
0.19866
0.209961
0.201308
0.172954
0.142865
0.113431
0.0847469
0.0567142
0.0293069
0.00257859
-0.0233551
-0.048352
-0.0723457
-0.0954172
-0.11779
-0.124014
-0.114928
-0.107828
-0.101783
-0.0951581
-0.0883632
-0.0816718
-0.075114
-0.0686933
-0.0624044
-0.0562415
-0.0501832
-0.0442032
-0.0382793
-0.0323887
-0.0265093
-0.0206264
-0.0147366
-0.00884256
-0.00294746
0.00294762
0.00884273
0.0147368
0.0206266
0.0265095
0.0323889
0.0382795
0.0442034
0.0501834
0.0562416
0.0624047
0.0686935
0.0751142
0.081672
0.0883634
0.0951583
0.101783
0.107828
0.114928
0.124014
0.11779
0.0954173
0.0723459
0.0483521
0.0233553
-0.0025784
-0.0293067
-0.056714
-0.0847468
-0.113431
-0.142864
-0.172954
-0.201308
-0.209961
-0.19866
-0.184983
-0.17128
-0.157811
-0.144561
-0.131493
-0.118572
-0.105776
-0.0930855
-0.0804868
-0.0679674
-0.0555156
-0.0431197
-0.0307679
-0.0184479
-0.00614715
0.00640558
0.0192243
0.0320659
0.044945
0.0578758
0.0708722
0.0839473
0.0971139
0.110385
0.123777
0.137311
0.151017
0.164952
0.179231
0.194201
0.21145
0.208502
0.181856
0.152653
0.122528
0.0925134
0.0629198
0.0338167
0.00523862
-0.0227412
-0.0499586
-0.0761398
-0.101161
-0.12521
-0.132755
-0.12423
-0.11604
-0.108667
-0.101857
-0.0950909
-0.0883432
-0.0816837
-0.0751404
-0.0687207
-0.0624219
-0.0562358
-0.0501472
-0.0441371
-0.0381868
-0.0322777
-0.0263933
-0.0205211
-0.0146547
-0.00879147
-0.00293019
0.00293035
0.00879163
0.0146549
0.0205213
0.0263935
0.0322779
0.038187
0.0441374
0.0501474
0.056236