/*--------------------------------*- C++ -*----------------------------------*\
  =========                 |
  \\      /  F ield         | OpenFOAM: The Open Source CFD Toolbox
   \\    /   O peration     | Website:  https://openfoam.org
    \\  /    A nd           | Version:  7
     \\/     M anipulation  |
\*---------------------------------------------------------------------------*/
FoamFile
{
    version     2.0;
    format      ascii;
    class       volScalarField;
    location    "0.02";
    object      gradTx;
}
// * * * * * * * * * * * * * * * * * * * * * * * * * * * * * * * * * * * * * //

dimensions      [0 -1 0 1 0 0 0];

internalField   nonuniform List<scalar> 
10000
(
0.00116886
0.00350432
0.0058327
0.00814926
0.0104494
0.012728
0.0149799
0.0172
0.0193826
0.0215222
0.0236127
0.0256479
0.0276212
0.029526
0.0313552
0.0331016
0.0347578
0.0363162
0.0377688
0.0391081
0.0403259
0.0414145
0.042366
0.0431726
0.0438269
0.0443215
0.0446492
0.0448032
0.0447769
0.0445642
0.0441595
0.0435578
0.0427548
0.0417477
0.0405348
0.039116
0.0374933
0.0356705
0.0336532
0.0314488
0.0290659
0.0265141
0.0238042
0.020948
0.0179598
0.014856
0.0116556
0.00837942
0.00504919
0.00168669
-0.00168653
-0.00504901
-0.00837923
-0.0116554
-0.0148558
-0.0179597
-0.0209479
-0.023804
-0.026514
-0.0290657
-0.0314487
-0.0336531
-0.0356704
-0.0374932
-0.0391159
-0.0405347
-0.0417477
-0.0427548
-0.0435577
-0.0441595
-0.0445642
-0.0447769
-0.0448032
-0.0446492
-0.0443215
-0.043827
-0.0431727
-0.042366
-0.0414145
-0.0403259
-0.0391081
-0.0377689
-0.0363162
-0.0347579
-0.0331017
-0.0313553
-0.0295261
-0.0276213
-0.0256479
-0.0236128
-0.0215223
-0.0193828
-0.0172001
-0.01498
-0.012728
-0.0104495
-0.00814933
-0.00583263
-0.00350421
-0.00116883
0.00117504
0.00352297
0.00586395
0.00819313
0.0105058
0.0127971
0.0150618
0.0172948
0.0194903
0.0216429
0.0237465
0.0257948
0.0277813
0.0296992
0.0315415
0.033301
0.03497
0.036541
0.0380061
0.0393573
0.0405867
0.0416864
0.0426484
0.0434649
0.0441284
0.0446313
0.0449666
0.0451273
0.0451067
0.0448986
0.0444973
0.0438975
0.0430948
0.0420858
0.0408687
0.0394433
0.0378115
0.0359771
0.033946
0.0317258
0.0293257
0.0267551
0.0240246
0.0211455
0.0181313
0.0149987
0.0117675
0.00845953
0.00509717
0.00170266
-0.00170249
-0.005097
-0.00845933
-0.0117674
-0.0149986
-0.0181312
-0.0211453
-0.0240244
-0.026755
-0.0293255
-0.0317257
-0.0339459
-0.035977
-0.0378114
-0.0394433
-0.0408687
-0.0420857
-0.0430947
-0.0438974
-0.0444973
-0.0448986
-0.0451067
-0.0451272
-0.0449666
-0.0446313
-0.0441284
-0.0434649
-0.0426484
-0.0416864
-0.0405868
-0.0393573
-0.0380061
-0.036541
-0.0349701
-0.033301
-0.0315416
-0.0296993
-0.0277814
-0.0257948
-0.0237466
-0.021643
-0.0194905
-0.0172949
-0.0150619
-0.0127972
-0.0105059
-0.00819321
-0.00586396
-0.00352292
-0.00117503
0.00118752
0.00356044
0.0059265
0.00828084
0.0106188
0.0129355
0.0152258
0.0174844
0.0197059
0.0218846
0.0240143
0.026089
0.0281018
0.0300461
0.0319148
0.0337003
0.0353952
0.0369916
0.0384815
0.0398569
0.0411096
0.0422315
0.0432146
0.0440509
0.0447328
0.0452526
0.0456031
0.0457772
0.0457683
0.0455697
0.0451753
0.0445796
0.0437775
0.0427651
0.0415399
0.0401014
0.0384511
0.0365932
0.0345341
0.0322822
0.0298474
0.0272396
0.0244684
0.0215437
0.0184776
0.0152867
0.0119929
0.0086202
0.00519312
0.00173453
-0.00173437
-0.00519295
-0.00862001
-0.0119927
-0.0152866
-0.0184774
-0.0215436
-0.0244683
-0.0272394
-0.0298472
-0.032282
-0.0345339
-0.0365931
-0.038451
-0.0401013
-0.0415399
-0.042765
-0.0437774
-0.0445795
-0.0451753
-0.0455696
-0.0457682
-0.0457772
-0.0456031
-0.0452526
-0.0447328
-0.0440509
-0.0432146
-0.0422315
-0.0411096
-0.0398569
-0.0384815
-0.0369916
-0.0353953
-0.0337004
-0.0319149
-0.0300462
-0.0281019
-0.026089
-0.0240145
-0.0218847
-0.0197061
-0.0174845
-0.0152259
-0.0129355
-0.0106189
-0.0082809
-0.00592655
-0.00356052
-0.00118756
0.00120631
0.00361677
0.00602046
0.00841257
0.0107885
0.0131433
0.0154721
0.0177694
0.0200299
0.0222477
0.024417
0.0265312
0.0285838
0.0305679
0.0324762
0.0343011
0.036035
0.0376697
0.0391972
0.040609
0.0418968
0.0430524
0.0440674
0.0449336
0.0456432
0.0461886
0.0465621
0.0467567
0.0467654
0.0465814
0.0461981
0.0456092
0.0448088
0.043792
0.0425552
0.0410971
0.0394189
0.037525
0.0354227
0.0331221
0.0306349
0.0279721
0.0251418
0.0221502
0.0190057
0.0157251
0.012334
0.00886189
0.00533663
0.00178205
-0.00178187
-0.00533647
-0.00886172
-0.0123339
-0.015725
-0.0190056
-0.0221501
-0.0251417
-0.0279719
-0.0306347
-0.033122
-0.0354226
-0.0375249
-0.0394188
-0.041097
-0.0425551
-0.0437919
-0.0448088
-0.0456092
-0.0461981
-0.0465814
-0.0467654
-0.0467567
-0.0465621
-0.0461886
-0.0456433
-0.0449337
-0.0440674
-0.0430524
-0.0418969
-0.040609
-0.0391972
-0.0376697
-0.036035
-0.0343012
-0.0324763
-0.030568
-0.0285839
-0.0265313
-0.0244171
-0.0222479
-0.02003
-0.0177695
-0.0154722
-0.0131434
-0.0107886
-0.00841258
-0.00602049
-0.00361687
-0.00120637
0.00123139
0.00369202
0.00614595
0.00858854
0.0110152
0.013421
0.0158011
0.0181502
0.0204628
0.0227332
0.0249552
0.0271226
0.0292285
0.031266
0.0332275
0.0351054
0.0368917
0.038578
0.040156
0.041617
0.0429522
0.0441531
0.045211
0.0461175
0.0468645
0.0474441
0.0478488
0.048071
0.0481039
0.0479401
0.0475726
0.0469942
0.0461976
0.0451763
0.0439251
0.0424413
0.0407254
0.038782
0.0366198
0.0342514
0.0316928
0.0289584
0.0260543
0.0229779
0.0197285
0.0163224
0.0127942
0.00918397
0.00552589
0.00184432
-0.00184414
-0.00552573
-0.0091838
-0.012794
-0.0163222
-0.0197284
-0.0229778
-0.0260542
-0.0289583
-0.0316927
-0.0342513
-0.0366196
-0.0387819
-0.0407253
-0.0424412
-0.0439251
-0.0451763
-0.0461975
-0.0469941
-0.0475726
-0.0479401
-0.0481039
-0.048071
-0.0478488
-0.0474442
-0.0468646
-0.0461176
-0.045211
-0.0441531
-0.0429523
-0.041617
-0.040156
-0.0385781
-0.0368917
-0.0351055
-0.0332276
-0.031266
-0.0292286
-0.0271227
-0.0249553
-0.0227333
-0.0204629
-0.0181503
-0.0158012
-0.0134211
-0.0110152
-0.00858856
-0.00614594
-0.00369207
-0.00123143
0.00126278
0.00378623
0.00630311
0.00880894
0.0112991
0.013769
0.0162135
0.0186275
0.0210055
0.0233419
0.0256304
0.0278646
0.0300377
0.0321424
0.0341711
0.0361159
0.0379684
0.0397201
0.0413621
0.0428852
0.0442806
0.0455388
0.0466511
0.0476087
0.0484029
0.0490259
0.0494698
0.0497272
0.0497909
0.0496537
0.0493077
0.0487446
0.0479556
0.0469315
0.0456645
0.0441494
0.0423855
0.0403778
0.038136
0.0356764
0.0330242
0.0302035
0.0272189
0.0240489
0.0206684
0.0170916
0.0133754
0.00958195
0.0057555
0.0019191
-0.00191893
-0.00575532
-0.00958179
-0.0133752
-0.0170915
-0.0206683
-0.0240488
-0.0272188
-0.0302034
-0.033024
-0.0356763
-0.0381359
-0.0403777
-0.0423855
-0.0441493
-0.0456644
-0.0469315
-0.0479556
-0.0487446
-0.0493077
-0.0496537
-0.0497909
-0.0497272
-0.0494698
-0.0490259
-0.048403
-0.0476087
-0.0466512
-0.0455389
-0.0442806
-0.0428853
-0.0413621
-0.0397201
-0.0379684
-0.0361159
-0.0341712
-0.0321424
-0.0300378
-0.0278647
-0.0256305
-0.023342
-0.0210057
-0.0186276
-0.0162136
-0.013769
-0.0112992
-0.00880897
-0.00630313
-0.00378625
-0.00126281
0.00130056
0.00389956
0.00649218
0.00907407
0.0116408
0.0141876
0.0167098
0.0192021
0.0216591
0.0240751
0.0264439
0.028759
0.0310134
0.0331996
0.0353099
0.0373359
0.0392691
0.0411003
0.0428203
0.0444194
0.045888
0.0472164
0.0483951
0.0494147
0.0502664
0.0509419
0.0514335
0.0517337
0.0518354
0.0517315
0.0514139
0.050873
0.0500976
0.0490751
0.0477931
0.0462424
0.0444201
0.0423316
0.0399869
0.0374033
0.0346247
0.0317047
0.0286519
0.0254035
0.0218673
0.018052
0.0140744
0.0100419
0.00601253
0.00200134
-0.00200118
-0.00601236
-0.0100418
-0.0140742
-0.0180519
-0.0218672
-0.0254033
-0.0286517
-0.0317046
-0.0346246
-0.0374032
-0.0399868
-0.0423315
-0.04442
-0.0462423
-0.047793
-0.0490751
-0.0500976
-0.050873
-0.0514139
-0.0517315
-0.0518354
-0.0517337
-0.0514335
-0.050942
-0.0502664
-0.0494147
-0.0483951
-0.0472165
-0.0458881
-0.0444194
-0.0428203
-0.0411004
-0.0392691
-0.037336
-0.0353099
-0.0331997
-0.0310135
-0.0287591
-0.0264441
-0.0240752
-0.0216593
-0.0192022
-0.0167099
-0.0141877
-0.0116408
-0.00907412
-0.0064922
-0.00389955
-0.00130056
0.00134471
0.00403211
0.00671336
0.00938426
0.0120405
0.0146776
0.0172908
0.0198749
0.0224246
0.0249342
0.0273975
0.0298078
0.032158
0.0344405
0.0366472
0.0387695
0.0407982
0.042724
0.0445367
0.0462262
0.0477821
0.049194
0.0504516
0.0515449
0.0524647
0.0532023
0.0537499
0.0541004
0.0542473
0.054184
0.0539028
0.0533932
0.0526412
0.0516291
0.050337
0.0487484
0.0468563
0.0446706
0.0421983
0.0394386
0.0364715
0.0334345
0.0303667
0.0271221
0.0234111
0.0192289
0.0148705
0.0105291
0.00626938
0.0020809
-0.00208076
-0.00626923
-0.0105289
-0.0148703
-0.0192288
-0.0234109
-0.027122
-0.0303666
-0.0334343
-0.0364713
-0.0394385
-0.0421982
-0.0446704
-0.0468562
-0.0487483
-0.050337
-0.0516291
-0.0526412
-0.0533932
-0.0539027
-0.054184
-0.0542473
-0.0541004
-0.05375
-0.0532024
-0.0524647
-0.0515449
-0.0504516
-0.0491941
-0.0477822
-0.0462263
-0.0445367
-0.042724
-0.0407983
-0.0387695
-0.0366473
-0.0344406
-0.0321581
-0.0298079
-0.0273976
-0.0249344
-0.0224248
-0.019875
-0.0172909
-0.0146777
-0.0120406
-0.0093843
-0.00671336
-0.0040321
-0.0013447
0.00139531
0.004184
0.00696685
0.00973984
0.0124988
0.0152395
0.0179572
0.0206469
0.0233033
0.0259208
0.028493
0.0310133
0.0334744
0.0358684
0.0381869
0.0404211
0.0425612
0.0445971
0.0465183
0.0483136
0.0499718
0.0514814
0.0528313
0.0540107
0.0550096
0.055819
0.0564309
0.0568387
0.0570372
0.0570216
0.0567857
0.0563194
0.0556059
0.0546204
0.0533305
0.0517056
0.0497278
0.0474307
0.0448242
0.0417999
0.0384975
0.035295
0.0323491
0.0293879
0.0254954
0.0206393
0.0156938
0.0109657
0.00647372
0.00213986
-0.00213971
-0.00647358
-0.0109656
-0.0156936
-0.0206392
-0.0254952
-0.0293878
-0.032349
-0.0352949
-0.0384973
-0.0417997
-0.044824
-0.0474306
-0.0497277
-0.0517055
-0.0533304
-0.0546203
-0.0556059
-0.0563194
-0.0567857
-0.0570216
-0.0570372
-0.0568387
-0.0564309
-0.055819
-0.0550096
-0.0540107
-0.0528313
-0.0514814
-0.0499718
-0.0483137
-0.0465183
-0.0445972
-0.0425612
-0.0404211
-0.038187
-0.0358685
-0.0334744
-0.0310134
-0.0284931
-0.0259209
-0.0233035
-0.020647
-0.0179573
-0.0152396
-0.0124989
-0.00973989
-0.00696686
-0.00418398
-0.0013953
0.0014524
0.00435538
0.00725288
0.0101411
0.0130162
0.0158739
0.0187098
0.0215191
0.0242965
0.0270364
0.0297324
0.0323779
0.0349653
0.0374867
0.0399333
0.0422956
0.0445637
0.0467266
0.048773
0.0506906
0.0524672
0.0540901
0.0555467
0.0568253
0.057915
0.0588059
0.0594901
0.0599613
0.0602163
0.0602539
0.0600721
0.059664
0.0590109
0.0580809
0.0568193
0.0551709
0.0530676
0.0506417
0.0480012
0.0445635
0.0405379
0.0370035
0.0344424
0.0326713
0.0286179
0.0221997
0.0163458
0.0111987
0.00653903
0.00215085
-0.00215069
-0.0065389
-0.0111986
-0.0163457
-0.0221995
-0.0286178
-0.0326712
-0.0344423
-0.0370033
-0.0405377
-0.0445634
-0.0480011
-0.0506416
-0.0530675
-0.0551708
-0.0568192
-0.0580809
-0.0590109
-0.0596639
-0.0600721
-0.0602539
-0.0602163
-0.0599614
-0.0594901
-0.058806
-0.057915
-0.0568254
-0.0555468
-0.0540901
-0.0524673
-0.0506907
-0.048773
-0.0467267
-0.0445638
-0.0422957
-0.0399333
-0.0374868
-0.0349654
-0.032378
-0.0297325
-0.0270365
-0.0242966
-0.0215192
-0.0187099
-0.015874
-0.0130162
-0.0101412
-0.00725291
-0.00435537
-0.00145239
0.00151601
0.00454636
0.00757166
0.0105884
0.013593
0.0165815
0.0195495
0.0224926
0.0254055
0.0282826
0.0311177
0.0339041
0.036634
0.0392992
0.0418907
0.0443986
0.0468122
0.04912
0.0513095
0.0533675
0.0552802
0.0570333
0.0586126
0.0600047
0.0611975
0.0621804
0.0629444
0.0634832
0.0637958
0.063888
0.0637664
0.0634329
0.0628697
0.0620467
0.0608639
0.0592549
0.0568869
0.0542167
0.0521169
0.0480462
0.0422062
0.0378473
0.0358464
0.0383314
0.0341878
0.0232602
0.0163387
0.0109772
0.00635206
0.00208151
-0.00208139
-0.00635193
-0.0109771
-0.0163385
-0.02326
-0.0341876
-0.0383312
-0.0358463
-0.0378471
-0.0422061
-0.0480461
-0.0521168
-0.0542165
-0.0568868
-0.0592548
-0.0608638
-0.0620466
-0.0628697
-0.0634329
-0.0637663
-0.063888
-0.0637958
-0.0634832
-0.0629444
-0.0621804
-0.0611976
-0.0600047
-0.0586126
-0.0570333
-0.0552802
-0.0533676
-0.0513095
-0.04912
-0.0468123
-0.0443987
-0.0418908
-0.0392993
-0.0366341
-0.0339042
-0.0311179
-0.0282827
-0.0254056
-0.0224927
-0.0195496
-0.0165815
-0.013593
-0.0105885
-0.00757168
-0.00454635
-0.001516
0.00158618
0.00475704
0.00792337
0.011082
0.0142297
0.0173626
0.0204769
0.0235682
0.0266314
0.0296611
0.0326511
0.0355945
0.0384835
0.0413098
0.0440639
0.0467356
0.0493134
0.0517852
0.0541375
0.0563556
0.058424
0.0603262
0.0620459
0.0635674
0.0648769
0.065963
0.0668149
0.0674231
0.0677878
0.0679276
0.067863
0.0676205
0.0671748
0.0665554
0.0655138
0.0642718
0.0611747
0.0573794
0.0583552
0.0534376
0.0425165
0.0364433
0.0328683
0.0307288
0.0266383
0.0203812
0.0148189
0.0100516
0.0058291
0.00191067
-0.00191058
-0.00582896
-0.0100514
-0.0148187
-0.0203811
-0.0266381
-0.0307287
-0.0328682
-0.0364432
-0.0425164
-0.0534375
-0.0583551
-0.0573793
-0.0611747
-0.0642717
-0.0655138
-0.0665554
-0.0671747
-0.0676205
-0.067863
-0.0679276
-0.0677878
-0.0674231
-0.0668149
-0.0659631
-0.064877
-0.0635674
-0.0620459
-0.0603263
-0.058424
-0.0563556
-0.0541375
-0.0517852
-0.0493135
-0.0467356
-0.044064
-0.0413099
-0.0384836
-0.0355945
-0.0326512
-0.0296612
-0.0266315
-0.0235683
-0.020477
-0.0173627
-0.0142297
-0.011082
-0.00792337
-0.00475702
-0.00158616
0.00166291
0.00498746
0.00830812
0.0116221
0.0149264
0.0182179
0.0214927
0.0247468
0.0279755
0.0311734
0.0343344
0.0374515
0.0405171
0.0435223
0.0464576
0.0493122
0.0520742
0.0547306
0.057267
0.0596671
0.0619134
0.0639865
0.0658666
0.067535
0.0689763
0.0701788
0.0711297
0.0718083
0.072207
0.0723733
0.0723386
0.0722105
0.0718506
0.0716809
0.0705548
0.0713299
0.0663378
0.0559368
0.0506539
0.0449852
0.0381022
0.0326473
0.0285502
0.0251658
0.0213319
0.0168666
0.0125472
0.0086105
0.0050192
0.00164829
-0.00164818
-0.00501908
-0.00861038
-0.0125471
-0.0168664
-0.0213317
-0.0251657
-0.02855
-0.0326472
-0.0381021
-0.0449851
-0.0506538
-0.0559367
-0.0663377
-0.0713299
-0.0705548
-0.0716808
-0.0718506
-0.0722105
-0.0723385
-0.0723733
-0.072207
-0.0718083
-0.0711298
-0.0701788
-0.0689763
-0.067535
-0.0658666
-0.0639865
-0.0619134
-0.0596672
-0.057267
-0.0547307
-0.0520743
-0.0493123
-0.0464577
-0.0435224
-0.0405171
-0.0374515
-0.0343344
-0.0311735
-0.0279756
-0.0247469
-0.0214928
-0.0182179
-0.0149265
-0.0116221
-0.00830813
-0.00498745
-0.0016629
0.00174623
0.00523768
0.00872594
0.0122087
0.0156835
0.0191474
0.0225973
0.0260292
0.0294387
0.0328208
0.0361693
0.0394775
0.0427375
0.0459405
0.0490764
0.0521342
0.0551015
0.0579647
0.0607083
0.0633149
0.0657644
0.0680338
0.0700981
0.0719331
0.0735212
0.0748558
0.0759286
0.0766863
0.0770717
0.0772328
0.0771191
0.077243
0.0765449
0.0779696
0.0738976
0.064359
0.057099
0.0495374
0.0434845
0.0378775
0.0323707
0.0275891
0.0236029
0.0201259
0.0167191
0.0132555
0.00992985
0.00684951
0.00400384
0.00131634
-0.00131623
-0.00400372
-0.00684941
-0.00992973
-0.0132553
-0.016719
-0.0201258
-0.0236028
-0.027589
-0.0323706
-0.0378774
-0.0434844
-0.0495373
-0.057099
-0.064359
-0.0738975
-0.0779696
-0.0765448
-0.077243
-0.0771191
-0.0772328
-0.0770717
-0.0766863
-0.0759286
-0.0748558
-0.0735212
-0.0719331
-0.0700981
-0.0680339
-0.0657644
-0.0633149
-0.0607083
-0.0579647
-0.0551016
-0.0521343
-0.0490765
-0.0459406
-0.0427376
-0.0394776
-0.0361694
-0.0328208
-0.0294388
-0.0260293
-0.0225974
-0.0191475
-0.0156835
-0.0122087
-0.00872595
-0.00523767
-0.00174622
0.00183611
0.00550764
0.00917682
0.0128419
0.0165009
0.0201515
0.0237909
0.0274156
0.0310217
0.0346043
0.0381575
0.0416746
0.0451477
0.0485679
0.0519247
0.0552069
0.0584018
0.0614952
0.0644713
0.0673117
0.069994
0.0724908
0.0747688
0.0767925
0.0785379
0.080016
0.0812662
0.0821615
0.0823859
0.082592
0.0818857
0.0833203
0.0793361
0.0699775
0.0629175
0.0552942
0.0483265
0.0417729
0.0359958
0.0307803
0.0260094
0.0218171
0.0182163
0.0150757
0.0122128
0.00954587
0.00709699
0.00487453
0.00284234
0.000933404
-0.000933287
-0.00284225
-0.00487443
-0.00709687
-0.00954572
-0.0122127
-0.0150756
-0.0182162
-0.021817
-0.0260093
-0.0307802
-0.0359957
-0.0417728
-0.0483264
-0.0552942
-0.0629174
-0.0699774
-0.079336
-0.0833203
-0.0818856
-0.082592
-0.0823859
-0.0821615
-0.0812662
-0.080016
-0.078538
-0.0767925
-0.0747688
-0.0724909
-0.0699941
-0.0673117
-0.0644713
-0.0614952
-0.0584018
-0.055207
-0.0519248
-0.0485679
-0.0451478
-0.0416746
-0.0381575
-0.0346043
-0.0310218
-0.0274157
-0.0237909
-0.0201516
-0.0165009
-0.0128419
-0.00917681
-0.00550764
-0.00183611
0.00193257
0.00579726
0.00966058
0.0135214
0.0173784
0.0212298
0.0250734
0.0289063
0.0327248
0.0365246
0.0403
0.0440444
0.04775
0.0514076
0.0550067
0.0585355
0.061981
0.0653292
0.0685645
0.0716686
0.0746186
0.0773827
0.0799154
0.082157
0.0840531
0.0856384
0.0871956
0.0885461
0.0879566
0.0891013
0.0847462
0.075054
0.0677277
0.0598874
0.0526816
0.0457339
0.0392805
0.0333542
0.0280516
0.0233297
0.0191473
0.0155192
0.0124249
0.00979352
0.0075481
0.0056475
0.0040597
0.00272449
0.00156651
0.000511094
-0.000510994
-0.0015664
-0.00272438
-0.00405957
-0.00564737
-0.00754798
-0.00979341
-0.0124248
-0.015519
-0.0191472
-0.0233297
-0.0280515
-0.0333541
-0.0392804
-0.0457338
-0.0526815
-0.0598873
-0.0677276
-0.075054
-0.0847462
-0.0891013
-0.0879566
-0.0885462
-0.0871957
-0.0856385
-0.0840531
-0.082157
-0.0799154
-0.0773827
-0.0746186
-0.0716686
-0.0685645
-0.0653292
-0.0619811
-0.0585355
-0.0550068
-0.0514077
-0.0477501
-0.0440445
-0.0403
-0.0365246
-0.0327249
-0.0289063
-0.0250734
-0.0212299
-0.0173784
-0.0135214
-0.00966057
-0.00579725
-0.00193254
0.00203548
0.00610635
0.010177
0.014247
0.0183156
0.022382
0.0264444
0.0305008
0.0345479
0.0385818
0.0425974
0.0465882
0.0505464
0.0544626
0.058326
0.0621244
0.0658445
0.0694724
0.0729938
0.0763931
0.0796503
0.0827342
0.085588
0.0881074
0.0901236
0.0915373
0.0935833
0.0971252
0.0920447
0.0813641
0.0731851
0.0646368
0.0568279
0.0493359
0.0423407
0.0358132
0.0298231
0.024411
0.0196108
0.0154107
0.0117896
0.00873564
0.00620968
0.00415677
0.00256311
0.00145501
0.000783426
0.000406449
0.000193478
5.7233e-05
-5.71218e-05
-0.000193351
-0.000406332
-0.000783315
-0.00145489
-0.00256302
-0.00415667
-0.00620956
-0.00873554
-0.0117895
-0.0154106
-0.0196107
-0.0244109
-0.029823
-0.0358131
-0.0423406
-0.0493359
-0.0568279
-0.0646368
-0.0731851
-0.0813641
-0.0920447
-0.0971252
-0.0935833
-0.0915374
-0.0901236
-0.0881074
-0.085588
-0.0827342
-0.0796504
-0.0763931
-0.0729938
-0.0694724
-0.0658445
-0.0621244
-0.0583261
-0.0544627
-0.0505464
-0.0465882
-0.0425974
-0.0385819
-0.034548
-0.0305009
-0.0264445
-0.022382
-0.0183157
-0.0142469
-0.010177
-0.00610633
-0.00203546
0.00214477
0.00643465
0.0107255
0.0150179
0.0193118
0.0236072
0.0279032
0.0321984
0.0364903
0.0407756
0.0450497
0.0493065
0.0535381
0.0577352
0.0618862
0.0659781
0.069997
0.0739289
0.0777616
0.0814851
0.0850896
0.0885577
0.091844
0.0948162
0.0970565
0.0970668
0.0987424
0.0946021
0.0819941
0.0713576
0.0622032
0.0536667
0.0457763
0.0384318
0.031657
0.0254616
0.0198775
0.0149303
0.0106311
0.0069616
0.0039033
0.0014537
-0.000456535
-0.00192338
-0.00289657
-0.0031669
-0.00278285
-0.00207269
-0.0012547
-0.000418
0.000418122
0.00125482
0.00207281
0.00278295
0.00316699
0.00289667
0.00192348
0.000456635
-0.00145359
-0.00390321
-0.0069615
-0.010631
-0.0149302
-0.0198774
-0.0254615
-0.0316569
-0.0384318
-0.0457763
-0.0536667
-0.0622032
-0.0713576
-0.0819941
-0.0946021
-0.0987424
-0.0970668
-0.0970565
-0.0948163
-0.091844
-0.0885578
-0.0850896
-0.0814851
-0.0777616
-0.0739289
-0.069997
-0.0659782
-0.0618862
-0.0577352
-0.0535382
-0.0493065
-0.0450498
-0.0407757
-0.0364903
-0.0321984
-0.0279033
-0.0236073
-0.0193119
-0.0150179
-0.0107255
-0.00643462
-0.00214475
0.00226034
0.00678181
0.0113057
0.0158334
0.020366
0.0249043
0.0294483
0.0339976
0.0385506
0.0431047
0.047656
0.0521989
0.0567259
0.0612272
0.0656906
0.0701015
0.0744442
0.078703
0.0828673
0.0869345
0.0909129
0.0948197
0.0986788
0.102529
0.106496
0.101207
0.0899969
0.0808144
0.070206
0.0600739
0.0507834
0.042207
0.0343134
0.0270723
0.0204892
0.0145768
0.00935751
0.00485018
0.00105781
-0.00207309
-0.00457494
-0.0063581
-0.00756243
-0.00849811
-0.00906318
-0.0084487
-0.0066804
-0.00466363
-0.00272396
-0.000893477
0.000893583
0.00272408
0.00466374
0.00668051
0.00844879
0.00906329
0.0084982
0.00756251
0.00635819
0.00457504
0.0020732
-0.00105771
-0.00485007
-0.00935743
-0.0145767
-0.0204891
-0.0270723
-0.0343133
-0.042207
-0.0507834
-0.0600739
-0.070206
-0.0808144
-0.0899969
-0.101207
-0.106496
-0.102529
-0.0986789
-0.0948198
-0.0909129
-0.0869345
-0.0828673
-0.0787031
-0.0744442
-0.0701016
-0.0656906
-0.0612272
-0.0567259
-0.0521989
-0.047656
-0.0431047
-0.0385506
-0.0339977
-0.0294484
-0.0249043
-0.020366
-0.0158334
-0.0113057
-0.00678176
-0.00226031
0.00238198
0.00714732
0.0119166
0.0166923
0.0214767
0.0262715
0.0310779
0.0358964
0.0407265
0.0455668
0.0504142
0.0552639
0.060109
0.0649395
0.0697424
0.0745006
0.0791942
0.0838024
0.0883116
0.0927249
0.0970702
0.101402
0.105804
0.110416
0.105493
0.0915538
0.0794792
0.0686831
0.0581431
0.0481227
0.038798
0.0301894
0.0223009
0.015138
0.0087154
0.00304681
-0.00184094
-0.00592433
-0.00916718
-0.0117361
-0.0137784
-0.0147607
-0.0149528
-0.0154624
-0.0164303
-0.0149042
-0.0108423
-0.00718846
-0.00409051
-0.00132764
0.00132775
0.00409066
0.00718858
0.0108424
0.0149043
0.0164304
0.0154624
0.0149528
0.0147608
0.0137786
0.0117362
0.00916726
0.00592441
0.00184104
-0.00304671
-0.00871534
-0.015138
-0.0223009
-0.0301894
-0.038798
-0.0481227
-0.0581431
-0.0686831
-0.0794792
-0.0915539
-0.105493
-0.110416
-0.105804
-0.101402
-0.0970703
-0.0927249
-0.0883116
-0.0838024
-0.0791941
-0.0745006
-0.0697424
-0.0649395
-0.060109
-0.055264
-0.0504142
-0.0455669
-0.0407266
-0.0358964
-0.0310779
-0.0262715
-0.0214767
-0.0166923
-0.0119166
-0.00714727
-0.00238196
0.00250956
0.0075306
0.0125574
0.0175935
0.0226422
0.0277067
0.0327893
0.0378918
0.0430149
0.0481586
0.053321
0.0584985
0.0636852
0.0688717
0.0740442
0.079183
0.0842606
0.0892445
0.0941071
0.0988501
0.103519
0.108201
0.11302
0.108146
0.0938045
0.080295
0.0679098
0.0564931
0.0457294
0.035617
0.0262122
0.0175436
0.00963297
0.00251357
-0.0037802
-0.00924766
-0.0138412
-0.0175484
-0.0200844
-0.0219515
-0.0240739
-0.0239885
-0.0220617
-0.0220061
-0.0263325
-0.0239328
-0.0146232
-0.00917537
-0.00513225
-0.00165765
0.00165778
0.00513238
0.00917547
0.0146233
0.0239329
0.0263326
0.0220062
0.0220618
0.0239886
0.024074
0.0219516
0.0200845
0.0175485
0.0138413
0.00924773
0.00378027
-0.00251351
-0.00963295
-0.0175436
-0.0262121
-0.035617
-0.0457293
-0.0564931
-0.0679098
-0.080295
-0.0938045
-0.108146
-0.11302
-0.108201
-0.103519
-0.0988501
-0.0941071
-0.0892445
-0.0842606
-0.079183
-0.0740442
-0.0688717
-0.0636852
-0.0584985
-0.053321
-0.0481586
-0.043015
-0.0378918
-0.0327894
-0.0277067
-0.0226422
-0.0175934
-0.0125573
-0.00753057
-0.00250954
0.00264279
0.00793097
0.0132267
0.018535
0.0238604
0.0292073
0.0345795
0.0399801
0.0454116
0.0508752
0.056371
0.0618971
0.0674494
0.0730202
0.0785966
0.0841569
0.0896651
0.095065
0.100292
0.105331
0.110249
0.115169
0.110247
0.095647
0.0815482
0.0681405
0.0555669
0.043814
0.0327987
0.0225105
0.0129709
0.00419684
-0.00379116
-0.0109212
-0.0171043
-0.0224334
-0.0267583
-0.0303844
-0.0317188
-0.0319654
-0.0366371
-0.0351179
-0.0273552
-0.0242238
-0.0230282
-0.0199327
-0.0145798
-0.00978103
-0.00561862
-0.00183272
0.00183285
0.00561875
0.00978113
0.0145799
0.0199328
0.0230283
0.0242239
0.0273552
0.035118
0.0366372
0.0319655
0.0317188
0.0303845
0.0267584
0.0224335
0.0171044
0.0109213
0.0037912
-0.00419682
-0.0129709
-0.0225104
-0.0327987
-0.043814
-0.055567
-0.0681405
-0.0815482
-0.095647
-0.110247
-0.115169
-0.110249
-0.105331
-0.100292
-0.095065
-0.0896651
-0.0841569
-0.0785965
-0.0730202
-0.0674494
-0.0618971
-0.056371
-0.0508752
-0.0454116
-0.0399801
-0.0345795
-0.0292073
-0.0238604
-0.018535
-0.0132267
-0.00793094
-0.00264279
0.00278144
0.00834759
0.0139234
0.0195151
0.0251287
0.0307701
0.0364445
0.0421568
0.047911
0.0537104
0.0595572
0.0654517
0.0713927
0.077376
0.0833931
0.0894263
0.0954357
0.10133
0.106951
0.112232
0.117287
0.112302
0.0974581
0.0829167
0.0688324
0.0553469
0.0425646
0.0305263
0.0192398
0.0087259
-0.000991378
-0.0099158
-0.0180751
-0.0253246
-0.0313211
-0.0366771
-0.04044
-0.0455883
-0.0445208
-0.0376355
-0.035485
-0.0325811
-0.0280876
-0.0245684
-0.0216832
-0.0182418
-0.0140202
-0.00977572
-0.00574317
-0.00189223
0.00189236
0.0057433
0.0097758
0.0140202
0.0182419
0.0216833
0.0245685
0.0280877
0.0325812
0.0354851
0.0376356
0.0445209
0.0455883
0.0404401
0.0366771
0.0313212
0.0253246
0.0180751
0.00991582
0.000991404
-0.00872586
-0.0192398
-0.0305263
-0.0425646
-0.0553469
-0.0688324
-0.0829167
-0.0974582
-0.112302
-0.117287
-0.112232
-0.106951
-0.10133
-0.0954357
-0.0894263
-0.0833931
-0.077376
-0.0713927
-0.0654517
-0.0595572
-0.0537104
-0.047911
-0.0421568
-0.0364445
-0.0307701
-0.0251287
-0.019515
-0.0139234
-0.00834757
-0.00278144
0.0029252
0.00877957
0.0146457
0.0205314
0.0264442
0.0323914
0.0383799
0.0444163
0.0505067
0.0566565
0.0628702
0.0691512
0.0755016
0.0819223
0.0884139
0.0949762
0.101594
0.108156
0.114253
0.119673
0.114691
0.0996069
0.0846413
0.0699639
0.0557143
0.0420101
0.0289435
0.0165791
0.00496987
-0.00582271
-0.0157406
-0.0248121
-0.0333101
-0.041042
-0.0462563
-0.0526061
-0.0528394
-0.0471248
-0.0432555
-0.0386683
-0.0351786
-0.0317187
-0.0279192
-0.0243434
-0.0209514
-0.0173791
-0.0135202
-0.00958421
-0.00570127
-0.00189039
0.0018905
0.00570136
0.00958432
0.0135203
0.0173792
0.0209515
0.0243435
0.0279192
0.0317188
0.0351787
0.0386684
0.0432556
0.0471249
0.0528395
0.0526062
0.0462563
0.041042
0.0333101
0.0248122
0.0157406
0.00582273
-0.00496987
-0.0165791
-0.0289435
-0.0420101
-0.0557143
-0.0699639
-0.0846413
-0.0996069
-0.114691
-0.119673
-0.114253
-0.108156
-0.101594
-0.0949761
-0.0884138
-0.0819223
-0.0755016
-0.0691512
-0.0628702
-0.0566565
-0.0505068
-0.0444164
-0.0383799
-0.0323914
-0.0264442
-0.0205314
-0.0146457
-0.00877955
-0.0029252
0.00307372
0.00922587
0.0153921
0.0215817
0.0278037
0.0340672
0.0403808
0.0467528
0.0531914
0.0597044
0.0662991
0.072982
0.0797585
0.0866335
0.0936171
0.100741
0.108095
0.115752
0.12255
0.117849
0.102518
0.0870725
0.071775
0.0567826
0.0422115
0.028159
0.0147081
0.00193081
-0.0100946
-0.0212534
-0.0313708
-0.0403417
-0.0493937
-0.0593809
-0.0601743
-0.0547875
-0.0513236
-0.0469388
-0.0428213
-0.038705
-0.0349349
-0.0312799
-0.0276008
-0.0239993
-0.0204554
-0.0168494
-0.0131333
-0.00936526
-0.00560251
-0.00186363
0.00186373
0.0056026
0.00936533
0.0131333
0.0168494
0.0204555
0.0239994
0.0276009
0.0312799
0.034935
0.0387051
0.0428214
0.0469389
0.0513237
0.0547876
0.0601744
0.059381
0.0493938
0.0403417
0.0313708
0.0212534
0.0100946
-0.00193081
-0.0147081
-0.028159
-0.0422115
-0.0567826
-0.071775
-0.0870725
-0.102518
-0.117849
-0.12255
-0.115752
-0.108095
-0.100741
-0.093617
-0.0866335
-0.0797584
-0.072982
-0.0662991
-0.0597044
-0.0531914
-0.0467528
-0.0403808
-0.0340672
-0.0278037
-0.0215817
-0.0153921
-0.00922585
-0.00307371
0.00322663
0.00968538
0.0161606
0.0226632
0.0292039
0.0357933
0.0424417
0.0491595
0.0559569
0.0628444
0.0698321
0.0769299
0.0841458
0.091484
0.0989458
0.106562
0.114597
0.124529
0.122689
0.106981
0.090746
0.0746349
0.0588074
0.0433431
0.0283136
0.0137917
-0.000152635
-0.0134558
-0.0260448
-0.0377754
-0.0482248
-0.0558923
-0.0646689
-0.0670674
-0.0604291
-0.0551893
-0.0508636
-0.0466091
-0.0424993
-0.0384986
-0.0346693
-0.0309486
-0.0272789
-0.023662
-0.0200765
-0.0164751
-0.0128337
-0.00916632
-0.00549507
-0.00183036
0.00183044
0.00549514
0.00916638
0.0128337
0.0164752
0.0200766
0.0236621
0.027279
0.0309487
0.0346694
0.0384986
0.0424994
0.0466091
0.0508637
0.0551894
0.0604291
0.0670674
0.064669
0.0558923
0.0482249
0.0377754
0.0260449
0.0134558
0.000152619
-0.0137917
-0.0283136
-0.0433431
-0.0588074
-0.0746348
-0.090746
-0.106981
-0.122689
-0.124529
-0.114597
-0.106562
-0.0989457
-0.0914839
-0.0841458
-0.0769299
-0.0698321
-0.0628444
-0.055957
-0.0491595
-0.0424417
-0.0357933
-0.0292039
-0.0226632
-0.0161606
-0.00968537
-0.00322661
0.00338352
0.0101569
0.0169493
0.0237733
0.0306411
0.0375651
0.0445572
0.0516298
0.058795
0.0660659
0.0734562
0.0809804
0.0886512
0.0964707
0.1044
0.112263
0.119523
0.125421
0.117038
0.0969366
0.0791046
0.0621243
0.0456447
0.0295948
0.0139931
-0.00110747
-0.0156469
-0.0295851
-0.0429167
-0.0556735
-0.0679844
-0.0704783
-0.0664908
-0.063966
-0.0594443
-0.054823
-0.0504676
-0.046259
-0.0421823
-0.0382241
-0.0343888
-0.0306501
-0.0269784
-0.0233577
-0.0197683
-0.0161858
-0.012595
-0.00899634
-0.0053961
-0.00179819
0.00179826
0.00539617
0.00899641
0.0125951
0.0161858
0.0197684
0.0233578
0.0269785
0.0306502
0.0343889
0.0382242
0.0421823
0.0462591
0.0504677
0.0548231
0.0594443
0.0639661
0.0664908
0.0704784
0.0679844
0.0556736
0.0429167
0.0295851
0.0156469
0.00110747
-0.0139932
-0.0295948
-0.0456447
-0.0621243
-0.0791046
-0.0969366
-0.117038
-0.125421
-0.119523
-0.112263
-0.1044
-0.0964707
-0.0886512
-0.0809804
-0.0734562
-0.0660658
-0.058795
-0.0516297
-0.0445572
-0.0375651
-0.0306411
-0.0237732
-0.0169493
-0.0101569
-0.00338352
0.00354401
0.0106393
0.0177561
0.0249089
0.0321116
0.039378
0.0467219
0.0541569
0.0616971
0.0693579
0.0771569
0.0851152
0.0932595
0.10162
0.110213
0.118879
0.126144
0.120942
0.103426
0.0848937
0.0668337
0.0492896
0.032184
0.0154865
-0.000782584
-0.0165632
-0.0317774
-0.0463939
-0.0604724
-0.0741615
-0.0777378
-0.0717304
-0.067025
-0.0630311
-0.0587173
-0.0543376
-0.0500606
-0.045902
-0.0418609
-0.0379309
-0.0341054
-0.0303685
-0.026701
-0.0230863
-0.0195078
-0.0159493
-0.0123991
-0.00885283
-0.00530974
-0.0017695
0.00176955
0.0053098
0.0088529
0.0123992
0.0159493
0.0195079
0.0230863
0.026701
0.0303686
0.0341055
0.037931
0.041861
0.0459021
0.0500606
0.0543376
0.0587174
0.0630311
0.0670251
0.0717304
0.0777379
0.0741615
0.0604724
0.0463939
0.0317775
0.0165632
0.000782579
-0.0154866
-0.032184
-0.0492896
-0.0668337
-0.0848937
-0.103426
-0.120942
-0.126144
-0.118879
-0.110213
-0.10162
-0.0932595
-0.0851152
-0.0771569