/*--------------------------------*- C++ -*----------------------------------*\
  =========                 |
  \\      /  F ield         | OpenFOAM: The Open Source CFD Toolbox
   \\    /   O peration     | Website:  https://openfoam.org
    \\  /    A nd           | Version:  7
     \\/     M anipulation  |
\*---------------------------------------------------------------------------*/
FoamFile
{
    version     2.0;
    format      ascii;
    class       volScalarField;
    location    "0.02";
    object      gradTy;
}
// * * * * * * * * * * * * * * * * * * * * * * * * * * * * * * * * * * * * * //

dimensions      [0 -1 0 1 0 0 0];

internalField   nonuniform List<scalar> 
10000
(
0.00116887
0.00117504
0.00118752
0.00120631
0.00123138
0.00126277
0.00130052
0.00134469
0.00139529
0.00145238
0.001516
0.00158615
0.0016629
0.00174623
0.00183615
0.00193256
0.00203547
0.00214478
0.00226033
0.00238201
0.00250956
0.00264281
0.00278147
0.00292522
0.00307372
0.00322663
0.00338355
0.00354403
0.00370762
0.00387383
0.00404206
0.00421164
0.00438178
0.00455155
0.00471986
0.00488551
0.00504719
0.00520368
0.00535377
0.00549643
0.00563081
0.0057562
0.00587181
0.00597662
0.00606923
0.00614814
0.00621202
0.00626012
0.00629214
0.00630811
0.00630811
0.00629213
0.00626012
0.00621204
0.00614816
0.00606927
0.00597663
0.00587182
0.0057562
0.0056308
0.00549644
0.00535378
0.00520368
0.0050472
0.00488551
0.00471987
0.00455157
0.00438179
0.00421164
0.00404206
0.00387383
0.00370762
0.00354403
0.00338355
0.00322663
0.00307372
0.0029252
0.00278144
0.00264281
0.00250956
0.00238199
0.00226031
0.00214477
0.00203548
0.00193256
0.00183614
0.00174624
0.00166291
0.00158614
0.001516
0.00145237
0.00139528
0.00134469
0.00130053
0.00126279
0.0012314
0.00120631
0.00118751
0.00117499
0.00116879
0.00350433
0.00352299
0.00356046
0.00361679
0.00369203
0.00378624
0.00389956
0.00403209
0.00418399
0.00435539
0.00454636
0.00475702
0.00498746
0.00523767
0.00550764
0.00579726
0.00610636
0.00643466
0.0067818
0.00714732
0.0075306
0.00793094
0.00834759
0.00877957
0.00922587
0.00968539
0.010157
0.0106393
0.011131
0.0116307
0.0121365
0.0126465
0.0131583
0.0136691
0.0141756
0.0146742
0.015161
0.0156321
0.0160837
0.0165129
0.0169171
0.0172943
0.0176425
0.0179586
0.0182382
0.0184764
0.018669
0.0188137
0.0189098
0.0189576
0.0189576
0.0189098
0.0188137
0.018669
0.0184764
0.0182383
0.0179586
0.0176426
0.0172943
0.0169171
0.0165129
0.0160837
0.0156321
0.015161
0.0146742
0.0141756
0.0136691
0.0131583
0.0126465
0.0121364
0.0116306
0.011131
0.0106393
0.0101569
0.00968537
0.00922585
0.00877956
0.00834758
0.00793095
0.00753057
0.00714728
0.00678177
0.00643465
0.00610635
0.00579726
0.00550764
0.00523767
0.00498746
0.00475701
0.00454634
0.00435534
0.00418397
0.00403208
0.00389953
0.00378623
0.00369203
0.00361681
0.00356047
0.00352289
0.00350416
0.0058327
0.00586398
0.00592651
0.00602048
0.00614597
0.00630314
0.0064922
0.00671336
0.00696686
0.00725288
0.00757169
0.00792338
0.00830812
0.00872594
0.0091768
0.00966058
0.010177
0.0107255
0.0113057
0.0119166
0.0125574
0.0132267
0.0139234
0.0146457
0.0153921
0.0161606
0.0169493
0.0177561
0.0185788
0.0194149
0.0202616
0.0211157
0.0219733
0.0228297
0.0236795
0.0245162
0.0253332
0.0261237
0.0268812
0.0276004
0.0282774
0.0289096
0.0294943
0.0300269
0.0304991
0.0309013
0.0312255
0.0314678
0.0316279
0.0317072
0.0317072
0.0316279
0.0314678
0.0312255
0.0309013
0.0304991
0.0300269
0.0294944
0.0289096
0.0282774
0.0276004
0.0268811
0.0261237
0.0253332
0.0245162
0.0236795
0.0228298
0.0219733
0.0211157
0.0202615
0.0194149
0.0185788
0.0177561
0.0169493
0.0161606
0.0153921
0.0146457
0.0139233
0.0132267
0.0125573
0.0119166
0.0113056
0.0107255
0.0101769
0.00966056
0.00917679
0.00872591
0.00830809
0.00792335
0.00757164
0.00725286
0.00696681
0.00671332
0.00649216
0.00630306
0.00614591
0.00602045
0.00592653
0.00586392
0.00583257
0.00814928
0.00819314
0.00828085
0.00841259
0.00858855
0.00880896
0.0090741
0.00938428
0.00973986
0.0101411
0.0105884
0.011082
0.0116221
0.0122087
0.0128419
0.0135214
0.0142469
0.0150179
0.0158334
0.0166924
0.0175935
0.018535
0.0195151
0.0205314
0.0215817
0.0226632
0.0237733
0.0249089
0.0260671
0.0272445
0.0284375
0.0296418
0.0308521
0.0320619
0.0332633
0.0344471
0.0356032
0.0367214
0.037792
0.0388071
0.0397612
0.0406526
0.0414801
0.0422384
0.0429142
0.0434894
0.0439499
0.0442907
0.0445137
0.0446235
0.0446235
0.0445137
0.0442907
0.0439499
0.0434893
0.0429142
0.0422384
0.0414801
0.0406525
0.0397612
0.0388071
0.037792
0.0367214
0.0356032
0.0344471
0.0332633
0.0320619
0.0308521
0.0296418
0.0284375
0.0272445
0.026067
0.0249089
0.0237732
0.0226632
0.0215817
0.0205314
0.019515
0.018535
0.0175934
0.0166923
0.0158333
0.0150178
0.0142469
0.0135214
0.0128419
0.0122087
0.0116221
0.011082
0.0105884
0.0101411
0.00973981
0.00938423
0.00907404
0.00880888
0.00858847
0.00841252
0.0082808
0.00819313
0.00814926
0.0104494
0.0105058
0.0106188
0.0107885
0.0110152
0.0112991
0.0116408
0.0120405
0.0124989
0.0130162
0.013593
0.0142296
0.0149264
0.0156835
0.0165009
0.0173784
0.0183156
0.0193118
0.020366
0.0214767
0.0226422
0.0238604
0.0251287
0.0264442
0.0278038
0.0292039
0.0306411
0.0321116
0.0336116
0.0351371
0.0366838
0.0382467
0.0398192
0.0413934
0.0429588
0.0445027
0.0460111
0.0474693
0.0488639
0.0501827
0.0514182
0.052572
0.0536497
0.0546491
0.0555484
0.0563118
0.0569149
0.0573531
0.0576349
0.057772
0.057772
0.0576349
0.0573531
0.0569149
0.0563118
0.0555484
0.054649
0.0536497
0.052572
0.0514182
0.0501826
0.0488639
0.0474693
0.0460111
0.0445027
0.0429588
0.0413934
0.0398193
0.0382467
0.0366838
0.035137
0.0336115
0.0321115
0.030641
0.0292039
0.0278037
0.0264442
0.0251287
0.0238604
0.0226422
0.0214767
0.020366
0.0193118
0.0183156
0.0173784
0.0165009
0.0156835
0.0149264
0.0142296
0.013593
0.0130162
0.0124988
0.0120405
0.0116407
0.0112991
0.0110151
0.0107885
0.0106188
0.0105058
0.0104494
0.012728
0.0127971
0.0129355
0.0131434
0.013421
0.0137689
0.0141876
0.0146776
0.0152395
0.0158739
0.0165815
0.0173626
0.0182179
0.0191475
0.0201515
0.0212298
0.022382
0.0236072
0.0249043
0.0262715
0.0277067
0.0292073
0.0307701
0.0323914
0.0340672
0.0357933
0.037565
0.039378
0.0412277
0.0431096
0.0450191
0.0469509
0.0488979
0.0508509
0.0527968
0.0547189
0.0565979
0.0584136
0.0601475
0.0617808
0.0632994
0.0647127
0.0660457
0.0673102
0.0684713
0.069449
0.0702009
0.0707293
0.0710589
0.0712159
0.0712159
0.0710589
0.0707293
0.0702009
0.069449
0.0684712
0.0673102
0.0660457
0.0647126
0.0632994
0.0617808
0.0601475
0.0584136
0.0565979
0.0547189
0.0527967
0.0508509
0.0488979
0.0469508
0.0450191
0.0431096
0.0412277
0.039378
0.037565
0.0357932
0.0340672
0.0323914
0.0307701
0.0292073
0.0277067
0.0262715
0.0249043
0.0236072
0.022382
0.0212298
0.0201515
0.0191474
0.0182178
0.0173626
0.0165814
0.0158739
0.0152395
0.0146776
0.0141876
0.0137689
0.013421
0.0131433
0.0129355
0.0127971
0.012728
0.0149799
0.0150618
0.0152258
0.0154721
0.0158011
0.0162135
0.0167098
0.0172908
0.0179572
0.0187099
0.0195495
0.0204769
0.0214927
0.0225973
0.0237909
0.0250734
0.0264445
0.0279032
0.0294483
0.0310779
0.0327893
0.0345795
0.0364445
0.0383799
0.0403808
0.0424417
0.0445572
0.0467219
0.0489305
0.0511782
0.0534608
0.0557733
0.0581093
0.0604589
0.0628069
0.0651315
0.067406
0.0696023
0.0716987
0.0736646
0.0754609
0.0771119
0.0786918
0.0802597
0.081765
0.0830023
0.0839024
0.0844974
0.0848495
0.0850113
0.0850113
0.0848494
0.0844974
0.0839023
0.0830023
0.081765
0.0802596
0.0786918
0.0771118
0.0754609
0.0736645
0.0716987
0.0696022
0.0674059
0.0651315
0.0628069
0.0604589
0.0581093
0.0557733
0.0534608
0.0511782
0.0489304
0.0467219
0.0445572
0.0424417
0.0403807
0.0383799
0.0364445
0.0345795
0.0327893
0.0310778
0.0294483
0.0279032
0.0264444
0.0250734
0.0237908
0.0225972
0.0214927
0.0204769
0.0195495
0.0187098
0.0179572
0.0172907
0.0167097
0.0162134
0.0158011
0.0154721
0.0152258
0.0150618
0.0149799
0.0172
0.0172948
0.0174844
0.0177694
0.0181502
0.0186275
0.0192021
0.0198749
0.0206469
0.0215191
0.0224926
0.0235682
0.0247468
0.0260292
0.0274156
0.0289063
0.0305008
0.0321984
0.0339976
0.0358963
0.0378918
0.0399801
0.0421568
0.0444163
0.0467528
0.0491595
0.0516298
0.0541569
0.0567348
0.0593586
0.0620249
0.0647305
0.0674713
0.0702387
0.0730165
0.0757761
0.0784798
0.0810839
0.0835788
0.0859211
0.0879754
0.0897938
0.0915657
0.0934911
0.0955501
0.0971191
0.0981374
0.0987385
0.0990612
0.0991997
0.0991997
0.0990612
0.0987385
0.0981374
0.0971191
0.0955501
0.0934911
0.0915656
0.0897938
0.0879754
0.085921
0.0835788
0.0810838
0.0784797
0.0757761
0.0730165
0.0702387
0.0674712
0.0647304
0.0620249
0.0593586
0.0567348
0.0541568
0.0516297
0.0491595
0.0467527
0.0444163
0.0421567
0.0399801
0.0378917
0.0358963
0.0339975
0.0321983
0.0305007
0.0289062
0.0274156
0.0260291
0.0247468
0.0235682
0.0224925
0.0215191
0.0206469
0.0198749
0.0192021
0.0186275
0.0181502
0.0177694
0.0174844
0.0172948
0.0172
0.0193827
0.0194904
0.0197059
0.0200299
0.0204628
0.0210056
0.0216591
0.0224246
0.0233033
0.0242965
0.0254055
0.0266314
0.0279755
0.0294387
0.0310217
0.0327248
0.0345479
0.0364903
0.0385506
0.0407265
0.0430149
0.0454116
0.047911
0.0505067
0.0531914
0.055957
0.058795
0.0616971
0.0646559
0.0676661
0.0707257
0.0738355
0.0769965
0.0802051
0.0834484
0.0866874
0.0898709
0.0928986
0.095842
0.0987015
0.100967
0.102768
0.104536
0.106844
0.110085
0.11205
0.113056
0.113526
0.113725
0.113795
0.113795
0.113725
0.113526
0.113056
0.11205
0.110085
0.106844
0.104536
0.102768
0.100967
0.0987015
0.0958419
0.0928986
0.0898708
0.0866873
0.0834483
0.0802051
0.0769965
0.0738354
0.0707257
0.067666
0.0646559
0.0616971
0.0587949
0.0559569
0.0531914
0.0505067
0.0479109
0.0454115
0.0430149
0.0407265
0.0385505
0.0364902
0.0345479
0.0327248
0.0310217
0.0294387
0.0279755
0.0266314
0.0254055
0.0242965
0.0233033
0.0224246
0.0216591
0.0210056
0.0204628
0.0200299
0.019706
0.0194904
0.0193827
0.0215222
0.0216429
0.0218846
0.0222477
0.0227332
0.0233419
0.0240751
0.0249342
0.0259208
0.0270364
0.0282826
0.0296611
0.0311734
0.0328207
0.0346042
0.0365245
0.0385818
0.0407756
0.0431047
0.0455668
0.0481586
0.0508752
0.0537104
0.0566565
0.0597044
0.0628444
0.0660659
0.0693579
0.0727103
0.0761165
0.0795767
0.0830971
0.0866902
0.090361
0.0941165
0.0978943
0.101666
0.105053
0.108452
0.112346
0.114698
0.116055
0.11725
0.119552
0.126194
0.128245
0.128815
0.128889
0.128826
0.128768
0.128768
0.128826
0.128889
0.128815
0.128245
0.126194
0.119552
0.11725
0.116055
0.114698
0.112346
0.108452
0.105053
0.101666
0.0978943
0.0941164
0.0903609
0.0866901
0.0830971
0.0795766
0.0761165
0.0727103
0.0693579
0.0660658
0.0628444
0.0597044
0.0566564
0.0537103
0.0508751
0.0481585
0.0455667
0.0431046
0.0407756
0.0385818
0.0365245
0.0346042
0.0328207
0.0311734
0.0296611
0.0282826
0.0270364
0.0259208
0.0249343
0.0240751
0.0233419
0.0227332
0.0222478
0.0218846
0.021643
0.0215222
0.0236127
0.0237465
0.0240143
0.024417
0.0249552
0.0256304
0.0264439
0.0273975
0.028493
0.0297324
0.0311178
0.0326511
0.0343344
0.0361693
0.0381575
0.0403
0.0425974
0.0450497
0.0476559
0.0504142
0.0533209
0.056371
0.0595571
0.0628701
0.0662991
0.0698321
0.0734562
0.0771569
0.080918
0.0847284
0.0885917
0.0925193
0.0965482
0.100683
0.105023
0.109378
0.114124
0.117485
0.120861
0.127839
0.129735
0.129818
0.129175
0.128243
0.127233
0.126264
0.125414
0.124737
0.124267
0.124027
0.124027
0.124267
0.124737
0.125414
0.126264
0.127233
0.128243
0.129175
0.129818
0.129735
0.127839
0.120861
0.117485
0.114124
0.109378
0.105023
0.100683
0.0965482
0.0925193
0.0885917
0.0847284
0.0809179
0.0771569
0.0734562
0.0698321
0.0662991
0.0628701
0.0595571
0.0563709
0.0533209
0.0504142
0.0476559
0.0450496
0.0425973
0.0402999
0.0381574
0.0361693
0.0343343
0.0326511
0.0311178
0.0297324
0.028493
0.0273976
0.026444
0.0256304
0.0249553
0.024417
0.0240144
0.0237465
0.0236127
0.0256478
0.0257947
0.026089
0.0265312
0.0271226
0.0278646
0.028759
0.0298078
0.0310133
0.0323779
0.0339041
0.0355945
0.0374515
0.0394775
0.0416746
0.0440444
0.0465882
0.0493065
0.0521989
0.0552639
0.0584985
0.0618971
0.0654517
0.0691512
0.072982
0.0769299
0.0809804
0.0851153
0.0893056
0.0935264
0.0977908
0.102099
0.106568
0.11108
0.116203
0.120771
0.128278
0.130221
0.129998
0.128758
0.126937
0.124654
0.121737
0.117358
0.108571
0.104502
0.102178
0.100711
0.0998112
0.0993779
0.0993779
0.0998112
0.100711
0.102178
0.104502
0.108571
0.117358
0.121737
0.124654
0.126937
0.128758
0.129998
0.130221
0.128278
0.12077
0.116203
0.11108
0.106568
0.102099
0.0977908
0.0935264
0.0893055
0.0851152
0.0809804
0.0769299
0.072982
0.0691511
0.0654517
0.0618971
0.0584984
0.0552639
0.0521988
0.0493064
0.0465882
0.0440444
0.0416746
0.0394775
0.0374515
0.0355945
0.0339041
0.0323779
0.0310133
0.0298078
0.028759
0.0278646
0.0271226
0.0265312
0.026089
0.0257948
0.0256479
0.0276212
0.0277812
0.0281018
0.0285838
0.0292285
0.0300377
0.0310133
0.032158
0.0334743
0.0349653
0.036634
0.0384835
0.0405171
0.0427376
0.0451478
0.0477501
0.0505464
0.0535381
0.0567259
0.060109
0.0636852
0.0674494
0.0713927
0.0755016
0.0797585
0.0841458
0.0886512
0.0932596
0.0979144
0.102543
0.10722
0.1118
0.116842
0.12117
0.128256
0.129553
0.128344
0.125478
0.120502
0.110607
0.104942
0.100461
0.0960873
0.0911957
0.0854844
0.0812765
0.0783586
0.0763875
0.0751566
0.0745623
0.0745623
0.0751566
0.0763875
0.0783586
0.0812765
0.0854844
0.0911957
0.0960872
0.100461
0.104941
0.110607
0.120502
0.125478
0.128344
0.129553
0.128256
0.12117
0.116842
0.111799
0.10722
0.102543
0.0979144
0.0932595
0.0886512
0.0841458
0.0797584
0.0755015
0.0713927
0.0674494
0.0636851
0.0601089
0.0567258
0.0535381
0.0505463
0.04775
0.0451477
0.0427375
0.040517
0.0384835
0.036634
0.0349654
0.0334744
0.032158
0.0310134
0.0300377
0.0292286
0.0285839
0.0281019
0.0277813
0.0276212
0.029526
0.0296992
0.0300462
0.0305679
0.031266
0.0321424
0.0331996
0.0344405
0.0358684
0.0374867
0.0392993
0.0413098
0.0435223
0.0459405
0.0485679
0.0514076
0.0544626
0.0577352
0.0612272
0.0649395
0.0688717
0.0730202
0.077376
0.0819223
0.0866335
0.091484
0.0964707
0.10162
0.106824
0.111799
0.117043
0.121346
0.128152
0.128832
0.126449
0.121195
0.110413
0.103183
0.0962494
0.0885252
0.0820444
0.0764324
0.0712142
0.0660985
0.061124
0.0569795
0.0538033
0.0515293
0.0500673
0.0493524
0.0493524
0.0500673
0.0515293
0.0538033
0.0569795
0.061124
0.0660985
0.0712141
0.0764324
0.0820444
0.0885252
0.0962493
0.103183
0.110413
0.121195
0.126449
0.128832
0.128152
0.121346
0.117043
0.111799
0.106824
0.10162
0.0964707
0.0914839
0.0866335
0.0819223
0.077376
0.0730201
0.0688717
0.0649395
0.0612271
0.0577352
0.0544626
0.0514076
0.0485679
0.0459405
0.0435223
0.0413098
0.0392992
0.0374867
0.0358684
0.0344405
0.0331996
0.0321424
0.031266
0.0305679
0.0300462
0.0296992
0.029526
0.0313552
0.0315416
0.0319148
0.0324762
0.0332275
0.0341711
0.0353099
0.0366472
0.0381869
0.0399333
0.0418907
0.0440639
0.0464576
0.0490764
0.0519248
0.0550067
0.058326
0.0618862
0.0656906
0.0697424
0.0740443
0.0785966
0.0833931
0.0884139
0.093617
0.0989457
0.1044
0.110213
0.11626
0.121098
0.128128
0.128725
0.125939
0.119908
0.107857
0.0986916
0.0892317
0.080873
0.0730484
0.0654401
0.0585007
0.0522166
0.0464308
0.0410386
0.0360984
0.0318676
0.0284904
0.0259975
0.0243654
0.0235601
0.0235601
0.0243654
0.0259975
0.0284904
0.0318676
0.0360984
0.0410386
0.0464307
0.0522166
0.0585007
0.06544
0.0730484
0.0808729
0.0892316
0.0986915
0.107857
0.119908
0.125939
0.128725
0.128128
0.121098
0.11626
0.110213
0.1044
0.0989457
0.093617
0.0884138
0.0833931
0.0785965
0.0740442
0.0697423
0.0656905
0.0618862
0.058326
0.0550067
0.0519247
0.0490764
0.0464576
0.0440639
0.0418907
0.0399333
0.0381869
0.0366472
0.0353099
0.0341711
0.0332275
0.0324762
0.0319148
0.0315416
0.0313553
0.0331016
0.033301
0.0337003
0.0343011
0.0351054
0.0361159
0.0373359
0.0387695
0.0404211
0.0422956
0.0443986
0.0467356
0.0493122
0.0521342
0.055207
0.0585355
0.0621244
0.0659782
0.0701016
0.0745006
0.079183
0.0841569
0.0894263
0.0949762
0.100741
0.106562
0.112263
0.118879
0.127226
0.128538
0.125998
0.119837
0.107315
0.0973291
0.0866733
0.0767523
0.0671922
0.0582489
0.0498304
0.041864
0.0344608
0.0276442
0.0213793
0.0156375
0.0104604
0.00598777
0.00236959
-0.000325795
-0.00209851
-0.00297466
-0.00297466
-0.0020985
-0.000325774
0.0023696
0.00598778
0.0104604
0.0156375
0.0213793
0.0276441
0.0344607
0.0418639
0.0498303
0.0582488
0.0671922
0.0767523
0.0866733
0.0973291
0.107315
0.119837
0.125998
0.128538
0.127226
0.118879
0.112263
0.106562
0.100741
0.0949761
0.0894263
0.0841569
0.079183
0.0745006
0.0701016
0.0659781
0.0621244
0.0585355
0.055207
0.0521342
0.0493122
0.0467356
0.0443986
0.0422957
0.0404211
0.0387695
0.0373359
0.0361159
0.0351054
0.0343012
0.0337004
0.033301
0.0331017
0.0347578
0.03497
0.0353952
0.036035
0.0368916
0.0379684
0.0392691
0.0407982
0.0425612
0.0445637
0.0468122
0.0493134
0.0520743
0.0551015
0.0584018
0.061981
0.0658445
0.069997
0.0744442
0.0791941
0.0842606
0.0896651
0.0954357
0.101594
0.108095
0.114597
0.119523
0.126144
0.125579
0.120182
0.107836
0.0976385
0.0864482
0.0756871
0.0649927
0.0546625
0.0447203
0.0352596
0.0262965
0.0178391
0.00992834
0.00259511
-0.00413713
-0.0102863
-0.015854
-0.0207309
-0.0246684
-0.0275735
-0.0294656
-0.0303947
-0.0303947
-0.0294656
-0.0275735
-0.0246684
-0.020731
-0.015854
-0.0102863
-0.00413715
0.00259508
0.00992828
0.017839
0.0262964
0.0352595
0.0447203
0.0546625
0.0649926
0.0756871
0.0864482
0.0976385
0.107836
0.120181
0.125579
0.126144
0.119523
0.114597
0.108095
0.101594
0.0954357
0.089665
0.0842606
0.0791941
0.0744442
0.069997
0.0658444
0.061981
0.0584018
0.0551015
0.0520743
0.0493134
0.0468122
0.0445637
0.0425612
0.0407983
0.0392691
0.0379684
0.0368917
0.036035
0.0353953
0.0349701
0.0347579
0.0363161
0.036541
0.0369916
0.0376697
0.038578
0.03972
0.0411003
0.0427239
0.0445971
0.0467266
0.04912
0.0517852
0.0547307
0.0579647
0.0614952
0.0653292
0.0694724
0.0739289
0.0787031
0.0838024
0.0892445
0.095065
0.10133
0.108156
0.115752
0.124529
0.125421
0.120942
0.10911
0.0991034
0.0878203
0.0767017
0.0653905
0.0541871
0.0431269
0.0323356
0.0218905
0.0118701
0.00232973
-0.00668296
-0.0151541
-0.0230475
-0.0302478
-0.0368196
-0.0429027
-0.0484459
-0.0528064
-0.0559097
-0.0578765
-0.0588272
-0.0588272
-0.0578765
-0.0559097
-0.0528064
-0.0484459
-0.0429027
-0.0368196
-0.0302479
-0.0230476
-0.0151541
-0.00668299
0.00232968
0.01187
0.0218905
0.0323356
0.0431269
0.0541871
0.0653904
0.0767017
0.0878203
0.0991034
0.10911
0.120942
0.125421
0.124529
0.115752
0.108156
0.10133
0.0950649
0.0892444
0.0838024
0.078703
0.0739289
0.0694723
0.0653292
0.0614952
0.0579647
0.0547307
0.0517852
0.04912
0.0467266
0.0445971
0.042724
0.0411003
0.0397201
0.0385781
0.0376698
0.0369916
0.0365411
0.0363162
0.0377688
0.038006
0.0384815
0.0391971
0.040156
0.041362
0.0428203
0.0445367
0.0465183
0.0487729
0.0513095
0.0541375
0.057267
0.0607083
0.0644713
0.0685645
0.0729937
0.0777616
0.0828673
0.0883116
0.0941071
0.100292
0.106951
0.114253
0.12255
0.122689
0.117038
0.103426
0.0911185
0.0795753
0.0678837
0.0561701
0.0444064
0.0326947
0.0211126
0.00975315
-0.0013022
-0.0119653
-0.0221569
-0.0317636
-0.0408545
-0.0494453
-0.0570689
-0.0639416
-0.0706079
-0.0774754
-0.0823452
-0.0855348
-0.087461
-0.0883706
-0.0883706
-0.087461
-0.0855348
-0.0823452
-0.0774753
-0.0706079
-0.0639416
-0.0570689
-0.0494454
-0.0408546
-0.0317636
-0.0221569
-0.0119654
-0.00130223
0.00975312
0.0211125
0.0326947
0.0444063
0.05617
0.0678836
0.0795752
0.0911185
0.103426
0.117038
0.122689
0.12255
0.114253
0.106951
0.100292
0.0941071
0.0883115
0.0828672
0.0777616
0.0729937
0.0685644
0.0644713
0.0607083
0.057267
0.0541375
0.0513095
0.048773
0.0465183
0.0445367
0.0428203
0.0413621
0.0401561
0.0391972
0.0384816
0.0380061
0.0377689
0.0391081
0.0393573
0.0398568
0.040609
0.0416169
0.0428852
0.0444194
0.0462262
0.0483136
0.0506906
0.0533675
0.0563556
0.0596671
0.0633149
0.0673116
0.0716686
0.0763931
0.0814851
0.0869345
0.0927249
0.0988501
0.105331
0.112232
0.119673
0.117849
0.106981
0.0969366
0.0848937
0.0726153
0.0604171
0.0481584
0.0358458
0.023495
0.0111654
-0.00106379
-0.013104
-0.0248882
-0.0363027
-0.0472867
-0.0574449
-0.0671651
-0.0769439
-0.0847955
-0.0914432
-0.0983036
-0.108713
-0.113788
-0.116655
-0.118299
-0.119064
-0.119064
-0.118299
-0.116655
-0.113788
-0.108713
-0.0983036
-0.0914432
-0.0847956
-0.0769439
-0.0671652
-0.0574449
-0.0472868
-0.0363028
-0.0248882
-0.013104
-0.00106384
0.0111654
0.023495
0.0358458
0.0481583
0.060417
0.0726153
0.0848937
0.0969366
0.106981
0.117849
0.119673
0.112232
0.105331
0.0988501
0.0927249
0.0869344
0.081485
0.076393
0.0716686
0.0673117
0.0633149
0.0596672
0.0563556
0.0533676
0.0506907
0.0483137
0.0462263
0.0444195
0.0428853
0.041617
0.0406091
0.039857
0.0393574
0.0391081
0.0403259
0.0405867
0.0411095
0.0418968
0.0429522
0.0442805
0.045888
0.0477822
0.0499718
0.0524672
0.0552802
0.058424
0.0619134
0.0657644
0.069994
0.0746186
0.0796503
0.0850895
0.0909129
0.0970703
0.103519
0.110249
0.117287
0.114691
0.102518
0.090746
0.0791046
0.0668337
0.0542355
0.0414892
0.0286232
0.0156621
0.00263062
-0.01043
-0.0234286
-0.0362497
-0.0489089
-0.0611671
-0.073369
-0.0837186
-0.0935983
-0.106577
-0.113955
-0.11898
-0.122717
-0.125578
-0.127746
-0.129315
-0.130338
-0.130843
-0.130843
-0.130338
-0.129315
-0.127746
-0.125578
-0.122717
-0.11898
-0.113956
-0.106577
-0.0935983
-0.0837187
-0.073369
-0.0611671
-0.0489089
-0.0362497
-0.0234287
-0.01043
0.00263059
0.0156621
0.0286231
0.0414892
0.0542354
0.0668337
0.0791045
0.0907459
0.102518
0.114691
0.117287
0.110249
0.103519
0.0970702
0.0909129
0.0850896
0.0796503
0.0746186
0.069994
0.0657644
0.0619134
0.058424
0.0552802
0.0524672
0.0499718
0.0477822
0.0458881
0.0442806
0.0429523
0.0418969
0.0411097
0.0405868
0.040326
0.0414145
0.0416864
0.0422315
0.0430524
0.0441531
0.0455388
0.0472164
0.049194
0.0514814
0.05409
0.0570332
0.0603262
0.0639865
0.0680338
0.0724908
0.0773827
0.0827342
0.0885577
0.0948197
0.101402
0.108201
0.115169
0.112302
0.0996069
0.0870725
0.0746348
0.0621243
0.0492896
0.0361575
0.0228001
0.00926641
-0.00440348
-0.018193
-0.0321116
-0.0460311
-0.0596525
-0.0734605
-0.0862513
-0.1015
-0.110688
-0.117184
-0.122099
-0.125777
-0.128125
-0.128339
-0.123475
-0.122648
-0.122872
-0.123249
-0.123483
-0.123483
-0.123249
-0.122872
-0.122648
-0.123475
-0.128339
-0.128125
-0.125777
-0.122099
-0.117184
-0.110688
-0.1015
-0.0862513
-0.0734606
-0.0596525
-0.0460312
-0.0321116
-0.0181931
-0.00440353
0.00926636
0.0228
0.0361574
0.0492895
0.0621242
0.0746348
0.0870724
0.0996069
0.112302
0.115169
0.108201
0.101402
0.0948197
0.0885577
0.0827342
0.0773827
0.0724908
0.0680339
0.0639865
0.0603263
0.0570333
0.0540901
0.0514815
0.0491941
0.0472165
0.045539
0.0441532
0.0430525
0.0422316
0.0416865
0.0414146
0.042366
0.0426484
0.0432146
0.0440674
0.045211
0.0466511
0.048395
0.0504516
0.0528313
0.0555467
0.0586125
0.0620458
0.0658666
0.0700981
0.0747687
0.0799154
0.085588
0.091844
0.0986788
0.105804
0.11302
0.110247
0.0974581
0.0846413
0.071775
0.0588074
0.0456447
0.032184
0.0184098
0.00435516
-0.00992338
-0.0243564
-0.0389324
-0.0538752
-0.0690531
-0.0830272
-0.0992258
-0.109108
-0.115966
-0.120645
-0.122669
-0.119187
-0.11927
-0.119751
-0.11939
-0.117674
-0.116836
-0.116614
-0.116639
-0.116697
-0.116697
-0.116639
-0.116614
-0.116836
-0.117674
-0.11939
-0.119751
-0.11927
-0.119187
-0.122669
-0.120645
-0.115966
-0.109108
-0.0992259
-0.0830272
-0.0690531
-0.0538753
-0.0389324
-0.0243564
-0.00992339
0.00435512
0.0184098
0.0321839
0.0456446
0.0588074
0.071775
0.0846413
0.0974581
0.110247
0.11302
0.105804
0.0986788
0.091844
0.085588
0.0799154
0.0747688
0.0700981
0.0658666
0.0620459
0.0586126
0.0555468
0.0528314
0.0504517
0.0483952
0.0466513
0.0452111
0.0440675
0.0432147
0.0426485
0.0423661
0.0431726
0.0434649
0.0440509
0.0449336
0.0461175
0.0476087
0.0494147
0.0515449
0.0540107
0.0568253
0.0600047
0.0635673
0.067535
0.071933
0.0767925
0.082157
0.0881074
0.0948162
0.102529
0.110416
0.108146
0.095647
0.0829167
0.0699639
0.0567826
0.0433431
0.0295948
0.0154865
0.000999335
-0.0138478
-0.02898
-0.0442272
-0.0594059
-0.0755458
-0.0934623
-0.104399
-0.111573
-0.115283
-0.112923
-0.113583
-0.113993
-0.113033
-0.112692
-0.112546
-0.112122
-0.111318
-0.11073
-0.110431
-0.110319
-0.110291
-0.110291
-0.110319
-0.110431
-0.11073
-0.111318
-0.112122
-0.112546
-0.112692
-0.113033
-0.113993
-0.113583
-0.112923
-0.115283
-0.111573
-0.104399
-0.0934623
-0.0755459
-0.0594059
-0.0442273
-0.02898
-0.0138479
0.000999308
0.0154865
0.0295948
0.043343
0.0567826
0.0699639
0.0829167
0.095647
0.108146
0.110416
0.102529
0.0948163
0.0881074
0.082157
0.0767925
0.0719331
0.067535
0.0635674
0.0600048
0.0568254
0.0540108
0.051545
0.0494148
0.0476088
0.0461176
0.0449337
0.044051
0.043465
0.0431727
0.0438269
0.0441283
0.0447327
0.0456432
0.0468645
0.0484029
0.0502664
0.0524647
0.0550096
0.057915
0.0611975
0.0648769
0.0689762
0.0735212
0.0785379
0.084053
0.0901236
0.0970565
0.106496
0.105493
0.0938044
0.0815482
0.0688323
0.0557143
0.0422115
0.0283136
0.0139931
-0.000782611
-0.0160418
-0.0317973
-0.0479944
-0.0642815
-0.0790746
-0.0956404
-0.1051
-0.109813
-0.107683
-0.107837
-0.107167
-0.107081
-0.106998
-0.106572
-0.106227
-0.105932
-0.105546
-0.105057
-0.104642
-0.10437
-0.104224
-0.104164
-0.104164
-0.104224
-0.10437
-0.104642
-0.105057
-0.105546
-0.105932
-0.106228
-0.106572
-0.106998
-0.107081
-0.107167
-0.107837
-0.107683
-0.109813
-0.1051
-0.0956405
-0.0790746
-0.0642816
-0.0479945
-0.0317974
-0.0160418
-0.000782632
0.0139931
0.0283135
0.0422115
0.0557143
0.0688323
0.0815482
0.0938044
0.105493
0.106496
0.0970565
0.0901236
0.0840531
0.0785379
0.0735212
0.0689763
0.064877
0.0611976
0.057915
0.0550097
0.0524648
0.0502665
0.048403
0.0468646
0.0456434
0.0447329
0.0441285
0.043827
0.0443215
0.0446313
0.0452525
0.0461885
0.0474441
0.0490258
0.0509419
0.0532023
0.055819
0.0588059
0.0621804
0.065963
0.0701788
0.0748558
0.080016
0.0856384
0.0915373
0.0970667
0.101207
0.0915538
0.080295
0.0681404
0.0553468
0.0420101
0.028159
0.0137917
-0.00110749
-0.0165632
-0.0326234
-0.0493853
-0.0670435
-0.0859989
-0.0971801
-0.103096
-0.101765
-0.102366
-0.101801
-0.10151
-0.101121
-0.100871
-0.10064
-0.100325
-0.10001
-0.0997023
-0.0993686
-0.0990153
-0.098705
-0.098477
-0.098336
-0.0982706
-0.0982706
-0.0983361
-0.098477
-0.098705
-0.0990153
-0.0993686
-0.0997023
-0.10001
-0.100325
-0.10064
-0.100871
-0.101121
-0.10151
-0.101801
-0.102366
-0.101765
-0.103096
-0.0971802
-0.085999
-0.0670435
-0.0493854
-0.0326234
-0.0165633
-0.00110752
0.0137917
0.028159
0.0420101
0.0553468
0.0681404
0.080295
0.0915538
0.101207
0.0970668
0.0915373
0.0856385
0.080016
0.0748558
0.0701788
0.0659631
0.0621805
0.058806
0.055819
0.0532024
0.0509421
0.049026
0.0474442
0.0461886
0.0452527
0.0446314
0.0443216
0.0446492
0.0449666
0.045603
0.0465621
0.0478487
0.0494698
0.0514335
0.0537499
0.0564309
0.0594901
0.0629444
0.0668149
0.0711297
0.0759286
0.0812662
0.0871956
0.0935833
0.0987424
0.0899968
0.0794792
0.0679098
0.0555669
0.0425645
0.0289435
0.014708
-0.000152646
-0.0156469
-0.0317775
-0.048585
-0.066205
-0.0849711
-0.095718
-0.100809
-0.0980741
-0.0967729
-0.0963623
-0.0959212
-0.0955593
-0.0952142
-0.0949209
-0.0946465
-0.094357
-0.0940664
-0.093779
-0.0934907
-0.0932104
-0.0929649
-0.0927758
-0.0926514
-0.0925905
-0.0925905
-0.0926514
-0.0927759
-0.0929649
-0.0932104
-0.0934907
-0.0937791
-0.0940665
-0.0943571
-0.0946466
-0.094921
-0.0952142
-0.0955594
-0.0959213
-0.0963624
-0.096773
-0.0980742
-0.100809
-0.095718
-0.0849712
-0.066205
-0.0485851
-0.0317775
-0.0156469
-0.000152651
0.014708
0.0289435
0.0425645
0.0555669
0.0679098
0.0794792
0.0899969
0.0987424
0.0935833
0.0871956
0.0812662
0.0759286
0.0711298
0.0668149
0.0629445
0.0594902
0.0564309
0.05375
0.0514336
0.0494699
0.0478489
0.0465622
0.0456032
0.0449667
0.0446493
0.0448031
0.0451272
0.0457772
0.0467567
0.048071
0.0497272
0.0517337
0.0541004
0.0568387
0.0599613
0.0634832
0.0674231
0.0718083
0.0766863
0.0821615
0.0885461
0.0971252
0.0946021
0.0808144
0.0686831
0.0564931
0.043814
0.0305262
0.0165791
0.00193077
-0.0134558
-0.0295851
-0.0463939
-0.0638596
-0.0820517
-0.0911422
-0.0913469
-0.0925342
-0.0918826
-0.0911529
-0.0906527
-0.0902263
-0.0898562
-0.0895202
-0.0892172
-0.0889336
-0.0886562
-0.0883852
-0.0881225
-0.0878703
-0.087636
-0.0874334
-0.087275
-0.0871679
-0.0871143
-0.0871143
-0.0871679
-0.087275
-0.0874334
-0.087636
-0.0878703
-0.0881226
-0.0883852
-0.0886562
-0.0889337
-0.0892173
-0.0895203
-0.0898563
-0.0902264
-0.0906527
-0.091153
-0.0918827
-0.0925343
-0.0913469
-0.0911423
-0.0820518
-0.0638597
-0.0463939
-0.0295851
-0.0134558
0.0019308
0.0165791
0.0305262
0.043814
0.0564931
0.0686831
0.0808144
0.0946021
0.0971252
0.0885462
0.0821615
0.0766863
0.0718084
0.0674231
0.0634832
0.0599614
0.0568388
0.0541005
0.0517338
0.0497273
0.0480711
0.0467568
0.0457773
0.0451274
0.0448033
0.0447769
0.0451067
0.0457682
0.0467654
0.0481039
0.0497909
0.0518354
0.0542473
0.0570372
0.0602162
0.0637958
0.0677878
0.072207
0.0770717
0.0823858
0.0879566
0.0920447
0.0819941
0.070206
0.0581431
0.0457293
0.0327987
0.0192398
0.00496985
-0.0100946
-0.0260449
-0.0429167
-0.0604724
-0.0785745
-0.0872161
-0.0864409
-0.0862375
-0.0863476
-0.0860187
-0.0855527
-0.0851188
-0.0847252
-0.0843693
-0.0840441
-0.0837451
-0.0834659
-0.0832003
-0.0829471
-0.0827072
-0.0824834
-0.0822813
-0.0821089
-0.0819741
-0.081882
-0.0818354
-0.0818354
-0.081882
-0.0819741
-0.082109
-0.0822813
-0.0824834
-0.0827072
-0.0829471
-0.0832004
-0.0834659
-0.0837452
-0.0840441
-0.0843694
-0.0847252
-0.0851189
-0.0855528
-0.0860188
-0.0863476
-0.0862376
-0.086441
-0.0872161
-0.0785745
-0.0604724
-0.0429167
-0.0260449
-0.0100946
0.00496986
0.0192398
0.0327987
0.0457293
0.0581431
0.070206
0.0819941
0.0920447
0.0879566
0.0823859
0.0770717
0.072207
0.0677879
0.0637958
0.0602163
0.0570373
0.0542474
0.0518355
0.049791
0.048104
0.0467655
0.0457684
0.0451068
0.044777
0.0445642
0.0448986
0.0455697
0.0465814
0.0479401
0.0496537
0.0517315
0.054184
0.0570216
0.0602538
0.0638879
0.0679275
0.0723733
0.0772328
0.0825919
0.0891013
0.081364
0.0713576
0.0600739
0.0481227
0.035617
0.0225104
0.00872585
-0.00582275
-0.0212534
-0.0377754
-0.0556736
-0.0741615
-0.0829561
-0.0820279
-0.0813989