/*--------------------------------*- C++ -*----------------------------------*\
  =========                 |
  \\      /  F ield         | OpenFOAM: The Open Source CFD Toolbox
   \\    /   O peration     | Website:  https://openfoam.org
    \\  /    A nd           | Version:  7
     \\/     M anipulation  |
\*---------------------------------------------------------------------------*/
FoamFile
{
    version     2.0;
    format      ascii;
    class       volScalarField;
    location    "0.018";
    object      gradTx;
}
// * * * * * * * * * * * * * * * * * * * * * * * * * * * * * * * * * * * * * //

dimensions      [0 -1 0 1 0 0 0];

internalField   nonuniform List<scalar> 
10000
(
0.000350767
0.00105183
0.00175151
0.00244881
0.00314268
0.00383213
0.00451596
0.00519294
0.00586173
0.00652089
0.00716886
0.00780389
0.00842415
0.00902766
0.00961225
0.0101757
0.0107156
0.0112293
0.0117143
0.0121679
0.0125871
0.0129691
0.013311
0.0136098
0.0138626
0.0140663
0.014218
0.0143149
0.0143542
0.0143329
0.0142487
0.0140989
0.0138816
0.0135949
0.0132377
0.0128093
0.0123099
0.0117403
0.0111021
0.0103974
0.00962898
0.00880003
0.00791399
0.00697495
0.00598776
0.00495831
0.00389347
0.00280084
0.0016884
0.000564124
-0.000564097
-0.00168837
-0.00280083
-0.00389346
-0.00495831
-0.00598777
-0.00697496
-0.00791398
-0.00880002
-0.00962898
-0.0103974
-0.011102
-0.0117403
-0.0123099
-0.0128093
-0.0132377
-0.0135949
-0.0138816
-0.0140989
-0.0142487
-0.0143329
-0.0143542
-0.0143149
-0.014218
-0.0140663
-0.0138626
-0.0136098
-0.013311
-0.0129692
-0.0125871
-0.0121679
-0.0117144
-0.0112294
-0.0107156
-0.0101757
-0.00961225
-0.00902766
-0.00842417
-0.00780391
-0.00716887
-0.00652092
-0.00586176
-0.00519295
-0.00451597
-0.00383214
-0.00314269
-0.0024488
-0.00175152
-0.00105185
-0.000350772
0.000353107
0.00105881
0.00176313
0.00246513
0.00316375
0.00385795
0.00454661
0.0052285
0.00590223
0.00656641
0.00721945
0.00785965
0.0084851
0.00909384
0.00968372
0.0102524
0.0107976
0.0113166
0.0118068
0.0122654
0.0126896
0.0130765
0.013423
0.0137262
0.0139831
0.0141907
0.014346
0.0144461
0.0144882
0.0144693
0.0143869
0.0142384
0.0140216
0.0137346
0.0133761
0.0129454
0.0124425
0.0118684
0.0112246
0.0105136
0.00973814
0.00890143
0.00800687
0.00705821
0.00606014
0.00501861
0.0039408
0.00283474
0.00170871
0.000570884
-0.000570858
-0.00170868
-0.00283472
-0.0039408
-0.00501862
-0.00606016
-0.0070582
-0.00800685
-0.00890144
-0.00973814
-0.0105136
-0.0112246
-0.0118683
-0.0124425
-0.0129454
-0.0133761
-0.0137346
-0.0140216
-0.0142385
-0.0143869
-0.0144693
-0.0144882
-0.0144461
-0.014346
-0.0141907
-0.0139831
-0.0137262
-0.013423
-0.0130765
-0.0126897
-0.0122655
-0.0118068
-0.0113166
-0.0107976
-0.0102524
-0.00968373
-0.00909385
-0.00848512
-0.00785965
-0.00721948
-0.00656644
-0.00590225
-0.00522849
-0.00454663
-0.00385797
-0.00316375
-0.00246514
-0.00176316
-0.00105882
-0.00035308
0.000357734
0.00107277
0.00178643
0.00249781
0.00320591
0.00390969
0.00460801
0.00529967
0.00598336
0.00665762
0.00732084
0.00797134
0.00860725
0.00922652
0.00982698
0.0104063
0.0109621
0.0114916
0.0119923
0.0124611
0.0128953
0.0132918
0.0136476
0.0139597
0.0142249
0.0144403
0.0146028
0.0147095
0.0147572
0.0147433
0.0146647
0.0145189
0.0143032
0.0140157
0.0136546
0.0132192
0.0127093
0.012126
0.0114711
0.0107472
0.00995763
0.00910555
0.00819407
0.00722632
0.00620644
0.0051404
0.00403618
0.00290281
0.00174939
0.000584395
-0.000584368
-0.00174937
-0.00290279
-0.00403616
-0.00514041
-0.00620644
-0.00722633
-0.00819407
-0.00910556
-0.00995762
-0.0107472
-0.0114711
-0.012126
-0.0127093
-0.0132192
-0.0136546
-0.0140157
-0.0143032
-0.0145189
-0.0146647
-0.0147433
-0.0147572
-0.0147095
-0.0146028
-0.0144403
-0.0142249
-0.0139597
-0.0136477
-0.0132918
-0.0128953
-0.0124612
-0.0119923
-0.0114917
-0.0109621
-0.0104063
-0.009827
-0.00922653
-0.00860726
-0.00797136
-0.00732086
-0.00665762
-0.00598338
-0.00529969
-0.00460802
-0.00390969
-0.00320591
-0.00249782
-0.00178645
-0.00107279
-0.000357739
0.000364738
0.00109374
0.00182144
0.00254695
0.00326929
0.00398746
0.00470033
0.00540674
0.00610538
0.00679478
0.00747337
0.00813943
0.00879107
0.00942623
0.0100427
0.0106381
0.0112099
0.0117554
0.0122718
0.0127561
0.0132054
0.0136166
0.0139865
0.014312
0.0145899
0.014817
0.0149904
0.0151069
0.0151635
0.015157
0.0150845
0.0149429
0.0147293
0.0144413
0.0140766
0.0136342
0.0131138
0.0125164
0.0118443
0.0111007
0.0102897
0.0094148
0.00847865
0.00748283
0.00642997
0.00532612
0.00418088
0.00300545
0.0018104
0.000604607
-0.000604575
-0.00181037
-0.00300544
-0.00418086
-0.00532612
-0.00642997
-0.00748284
-0.00847866
-0.00941479
-0.0102896
-0.0111007
-0.0118443
-0.0125164
-0.0131138
-0.0136342
-0.0140766
-0.0144413
-0.0147294
-0.0149429
-0.0150845
-0.015157
-0.0151635
-0.0151069
-0.0149904
-0.0148171
-0.0145899
-0.014312
-0.0139865
-0.0136166
-0.0132055
-0.0127561
-0.0122718
-0.0117554
-0.0112099
-0.0106381
-0.0100427
-0.00942625
-0.00879108
-0.00813944
-0.00747338
-0.00679479
-0.00610539
-0.00540675
-0.00470034
-0.00398747
-0.0032693
-0.00254696
-0.00182147
-0.00109376
-0.000364727
0.000374066
0.00112178
0.00186826
0.00261266
0.00335404
0.00409146
0.00482384
0.00554999
0.00626865
0.00697837
0.00767759
0.00836454
0.00903732
0.00969384
0.0103318
0.0109488
0.0115422
0.0121092
0.0126469
0.0131522
0.013622
0.0140529
0.0144418
0.0147854
0.0150804
0.0153235
0.0155116
0.0156415
0.01571
0.015714
0.01565
0.0155147
0.0153046
0.0150164
0.0146475
0.0141959
0.0136612
0.0130445
0.0123484
0.0115773
0.010737
0.00983244
0.0088653
0.00783373
0.00673661
0.00557978
0.00437661
0.00314268
0.00189115
0.00063122
-0.000631172
-0.00189114
-0.00314268
-0.00437659
-0.00557978
-0.0067366
-0.00783374
-0.00886531
-0.00983245
-0.010737
-0.0115773
-0.0123484
-0.0130444
-0.0136612
-0.0141959
-0.0146475
-0.0150165
-0.0153046
-0.0155147
-0.01565
-0.015714
-0.01571
-0.0156415
-0.0155116
-0.0153235
-0.0150804
-0.0147854
-0.0144418
-0.0140529
-0.013622
-0.0131522
-0.0126469
-0.0121092
-0.0115422
-0.0109488
-0.0103318
-0.00969386
-0.00903733
-0.00836454
-0.0076776
-0.00697838
-0.00626867
-0.00555001
-0.00482385
-0.00409146
-0.00335405
-0.00261267
-0.00186828
-0.00112181
-0.000374076
0.000385776
0.00115695
0.00192698
0.00269509
0.0034604
0.00422199
0.00497884
0.00572983
0.00647368
0.007209
0.00793418
0.00864748
0.00934696
0.0100305
0.0106957
0.01134
0.0119608
0.0125551
0.0131198
0.0136517
0.0141474
0.0146035
0.0150166
0.0153832
0.0156999
0.0159632
0.01617
0.016317
0.016401
0.0164185
0.016366
0.0162396
0.016035
0.015748
0.0153746
0.014912
0.0143591
0.0137171
0.0129892
0.012181
0.0113022
0.0103616
0.00936049
0.00828911
0.00713643
0.00590747
0.00462482
0.00331312
0.00198975
0.000663375
-0.000663333
-0.00198971
-0.0033131
-0.00462482
-0.00590748
-0.00713642
-0.00828911
-0.00936051
-0.0103617
-0.0113022
-0.012181
-0.0129891
-0.0137171
-0.0143591
-0.014912
-0.0153746
-0.015748
-0.0160351
-0.0162396
-0.016366
-0.0164185
-0.016401
-0.016317
-0.01617
-0.0159632
-0.0156999
-0.0153832
-0.0150166
-0.0146036
-0.0141474
-0.0136517
-0.0131198
-0.0125551
-0.0119608
-0.01134
-0.0106957
-0.0100305
-0.00934696
-0.00864748
-0.00793419
-0.007209
-0.0064737
-0.00572986
-0.00497888
-0.00422201
-0.00346039
-0.00269508
-0.00192699
-0.00115697
-0.000385792
0.000399895
0.00119934
0.00199775
0.00279444
0.00358859
0.00437936
0.00516577
0.00594677
0.00672108
0.00748735
0.00824401
0.00898927
0.00972117
0.0104375
0.0111358
0.0118135
0.0124677
0.0130954
0.0136931
0.0142576
0.0147851
0.0152721
0.0157147
0.0161095
0.0164526
0.0167407
0.0169703
0.0171383
0.0172413
0.0172759
0.0172384
0.0171243
0.0169284
0.0166449
0.0162679
0.0157928
0.0152178
0.014544
0.0137747
0.012916
0.011985
0.0110029
0.00997226
0.00886674
0.00764774
0.00631805
0.00492487
0.00351157
0.00210114
0.000699109
-0.000699077
-0.0021011
-0.00351156
-0.00492486
-0.00631805
-0.00764773
-0.00886674
-0.00997227
-0.0110029
-0.011985
-0.012916
-0.0137747
-0.014544
-0.0152178
-0.0157929
-0.0162679
-0.0166449
-0.0169285
-0.0171244
-0.0172384
-0.0172759
-0.0172413
-0.0171383
-0.0169704
-0.0167407
-0.0164526
-0.0161095
-0.0157148
-0.0152721
-0.0147851
-0.0142576
-0.0136931
-0.0130954
-0.0124677
-0.0118135
-0.0111358
-0.0104375
-0.00972116
-0.00898926
-0.00824402
-0.00748738
-0.0067211
-0.00594678
-0.00516579
-0.00437937
-0.00358858
-0.00279444
-0.00199776
-0.00119935
-0.000399895
0.000416444
0.00124902
0.00208071
0.00291091
0.0037389
0.00456392
0.0053851
0.00620136
0.00701154
0.0078143
0.00860807
0.00939107
0.0101613
0.0109165
0.0116541
0.0123714
0.0130654
0.0137328
0.01437
0.0149734
0.015539
0.0160628
0.0165409
0.0169692
0.0173439
0.0176614
0.0179181
0.0181109
0.0182367
0.0182923
0.0182739
0.0181766
0.017994
0.0177182
0.0173401
0.0168522
0.0162506
0.0155385
0.0147178
0.013787
0.0127781
0.0117467
0.010708
0.00960137
0.00830724
0.00682307
0.00526924
0.00372439
0.00221442
0.000734404
-0.000734378
-0.0022144
-0.00372438
-0.00526923
-0.00682306
-0.00830724
-0.00960137
-0.010708
-0.0117467
-0.0127781
-0.013787
-0.0147178
-0.0155385
-0.0162506
-0.0168522
-0.0173401
-0.0177182
-0.0179941
-0.0181766
-0.0182739
-0.0182923
-0.0182367
-0.018111
-0.0179182
-0.0176614
-0.0173439
-0.0169692
-0.0165409
-0.0160628
-0.015539
-0.0149734
-0.01437
-0.0137328
-0.0130654
-0.0123715
-0.0116541
-0.0109165
-0.0101613
-0.00939108
-0.00860809
-0.00781432
-0.00701155
-0.00620136
-0.0053851
-0.00456394
-0.00373891
-0.00291092
-0.00208072
-0.00124902
-0.000416433
0.000435438
0.00130607
0.00217601
0.00304476
0.00391168
0.00477613
0.00563729
0.00649423
0.00734583
0.00819076
0.00902748
0.00985422
0.010669
0.0114693
0.0122527
0.0130163
0.0137568
0.0144707
0.0151543
0.0158033
0.0164137
0.016981
0.0175007
0.0179684
0.0183801
0.0187318
0.01902
0.0192415
0.0193937
0.019474
0.0194792
0.0194045
0.0192423
0.0189815
0.0186079
0.0181083
0.017474
0.0167179
0.0158431
0.0148038
0.0136564
0.0125552
0.0115639
0.0105703
0.00919723
0.00743096
0.00563028
0.00392048
0.00230856
0.000762044
-0.000762028
-0.00230854
-0.00392048
-0.00563026
-0.00743096
-0.00919723
-0.0105703
-0.0115639
-0.0125552
-0.0136564
-0.0148039
-0.0158431
-0.0167179
-0.017474
-0.0181082
-0.0186079
-0.0189815
-0.0192423
-0.0194046
-0.0194792
-0.019474
-0.0193937
-0.0192415
-0.01902
-0.0187319
-0.0183801
-0.0179684
-0.0175007
-0.016981
-0.0164137
-0.0158034
-0.0151543
-0.0144707
-0.0137568
-0.0130163
-0.0122527
-0.0114693
-0.010669
-0.00985424
-0.0090275
-0.00819077
-0.00734583
-0.00649423
-0.0056373
-0.00477613
-0.00391168
-0.00304477
-0.00217603
-0.00130608
-0.000435438
0.000456937
0.00137064
0.00228385
0.00319622
0.00410724
0.00501638
0.00592294
0.00682608
0.00772477
0.00861773
0.00950344
0.0103802
0.0112458
0.012098
0.012934
0.0137509
0.014545
0.0153128
0.0160501
0.0167523
0.0174148
0.0180326
0.0186007
0.0191142
0.0195687
0.0199597
0.0202836
0.0205374
0.0207191
0.0208275
0.0208611
0.020816
0.020684
0.0204509
0.0200933
0.0195877
0.0189047
0.0180978
0.0172102
0.016001
0.0145549
0.0133149
0.0124783
0.0119697
0.0105248
0.00810919
0.00592764
0.00403772
0.00234848
0.000770964
-0.000770943
-0.00234847
-0.00403771
-0.00592764
-0.00810918
-0.0105248
-0.0119697
-0.0124783
-0.0133149
-0.014555
-0.016001
-0.0172102
-0.0180978
-0.0189047
-0.0195877
-0.0200933
-0.0204509
-0.020684
-0.0208161
-0.0208611
-0.0208275
-0.0207191
-0.0205374
-0.0202836
-0.0199597
-0.0195687
-0.0191142
-0.0186007
-0.0180326
-0.0174148
-0.0167523
-0.0160501
-0.0153128
-0.014545
-0.0137509
-0.012934
-0.012098
-0.0112458
-0.0103802
-0.00950347
-0.00861774
-0.00772478
-0.00682609
-0.00592295
-0.00501637
-0.00410723
-0.00319621
-0.00228385
-0.00137065
-0.000456927
0.000480956
0.00144281
0.00240438
0.00336553
0.00432591
0.00528513
0.0062426
0.00719763
0.00814926
0.00909629
0.0100373
0.0109705
0.0118938
0.0128048
0.0137006
0.0145781
0.0154337
0.0162632
0.0170622
0.0178257
0.0185484
0.0192246
0.0198486
0.0204149
0.0209184
0.0213542
0.0217183
0.0220073
0.0222203
0.0223587
0.0224242
0.0224168
0.0223281
0.0221448
0.0218248
0.0213397
0.0205512
0.0196461
0.0189823
0.0175123
0.0153179
0.0137354
0.0131247
0.0143627
0.0128732
0.00859222
0.00596193
0.00397372
0.00228807
0.000747978
-0.000747983
-0.00228807
-0.00397371
-0.00596191
-0.0085922
-0.0128732
-0.0143627
-0.0131247
-0.0137354
-0.0153179
-0.0175123
-0.0189823
-0.0196461
-0.0205512
-0.0213397
-0.0218248
-0.0221449
-0.0223282
-0.0224168
-0.0224242
-0.0223587
-0.0222203
-0.0220074
-0.0217183
-0.0213542
-0.0209184
-0.0204149
-0.0198486
-0.0192246
-0.0185483
-0.0178257
-0.0170622
-0.0162632
-0.0154337
-0.0145781
-0.0137006
-0.0128048
-0.0118938
-0.0109705
-0.0100373
-0.0090963
-0.00814925
-0.00719763
-0.00624261
-0.00528511
-0.00432589
-0.00336553
-0.00240438
-0.00144279
-0.000480961
0.000507537
0.00152265
0.00253778
0.00355295
0.00456804
0.00558282
0.00659685
0.00760956
0.00862015
0.00962754
0.0106303
0.0116267
0.0126147
0.0135918
0.0145551
0.0155013
0.0164265
0.0173262
0.0181958
0.0190295
0.0198214
0.0205649
0.0212534
0.0218802
0.0224396
0.0229263
0.0233353
0.0236619
0.0239054
0.0240724
0.0241701
0.0242083
0.0241756
0.024083
0.023827
0.0234981
0.0224134
0.0210477
0.0216516
0.0198321
0.0155427
0.0132501
0.0119852
0.011311
0.00983392
0.00746543
0.00538266
0.00362629
0.00209318
0.000684471
-0.000684487
-0.00209317
-0.00362628
-0.00538264
-0.00746541
-0.00983393
-0.011311
-0.0119852
-0.01325
-0.0155427
-0.0198321
-0.0216516
-0.0210477
-0.0224135
-0.0234981
-0.023827
-0.024083
-0.0241756
-0.0242083
-0.0241701
-0.0240724
-0.0239054
-0.0236619
-0.0233353
-0.0229263
-0.0224396
-0.0218802
-0.0212534
-0.0205649
-0.0198214
-0.0190295
-0.0181958
-0.0173263
-0.0164265
-0.0155013
-0.0145551
-0.0135918
-0.0126147
-0.0116267
-0.0106303
-0.00962754
-0.00862016
-0.00760959
-0.00659685
-0.00558279
-0.00456803
-0.00355295
-0.00253777
-0.00152263
-0.000507537
0.000536712
0.00161026
0.00268419
0.00375872
0.00483396
0.00590985
0.0069862
0.00806259
0.00913836
0.0102125
0.0112838
0.0123506
0.0134107
0.0144616
0.0155005
0.0165237
0.0175273
0.0185067
0.0194564
0.0203705
0.0212418
0.0220628
0.0228253
0.0235214
0.0241444
0.0246891
0.0251493
0.0255157
0.025784
0.0259726
0.026093
0.0261882
0.0261998
0.0263004
0.0260168
0.0265247
0.024664
0.0205804
0.018607
0.016476
0.0138451
0.0118006
0.0103127
0.00911606
0.00773289
0.00608858
0.00450289
0.00307305
0.00178394
0.000584553
-0.000584548
-0.00178395
-0.00307304
-0.00450287
-0.00608858
-0.00773288
-0.00911606
-0.0103127
-0.0118006
-0.0138451
-0.0164761
-0.0186071
-0.0205805
-0.024664
-0.0265247
-0.0260169
-0.0263004
-0.0261998
-0.0261882
-0.026093
-0.0259726
-0.025784
-0.0255157
-0.0251493
-0.024689
-0.0241444
-0.0235213
-0.0228253
-0.0220628
-0.0212418
-0.0203704
-0.0194564
-0.0185067
-0.0175274
-0.0165237
-0.0155005
-0.0144616
-0.0134107
-0.0123506
-0.0112838
-0.0102125
-0.00913837
-0.0080626
-0.00698621
-0.00590985
-0.00483393
-0.00375872
-0.00268419
-0.00161024
-0.000536696
0.000568491
0.00170574
0.00284376
0.00398304
0.00512392
0.00626663
0.00741119
0.00855737
0.00970469
0.0108524
0.0119992
0.0131436
0.0142836
0.0154165
0.0165395
0.0176489
0.0187404
0.0198093
0.0208499
0.0218554
0.022818
0.0237284
0.0245762
0.0253513
0.0260461
0.0266571
0.02718
0.0275917
0.0278675
0.0280668
0.028167
0.0283776
0.0282608
0.0290279
0.0275393
0.0238056
0.0210146
0.0181013
0.0158089
0.0136988
0.0116275
0.00985123
0.00839843
0.0071515
0.00593014
0.00468249
0.00348897
0.00239398
0.00139365
0.00045716
-0.000457154
-0.00139364
-0.00239397
-0.00348896
-0.00468249
-0.00593014
-0.00715152
-0.00839845
-0.00985124
-0.0116275
-0.0136988
-0.0158089
-0.0181013
-0.0210146
-0.0238056
-0.0275393
-0.0290279
-0.0282608
-0.0283776
-0.028167
-0.0280668
-0.0278675
-0.0275917
-0.02718
-0.0266571
-0.0260461
-0.0253513
-0.0245762
-0.0237284
-0.022818
-0.0218554
-0.0208499
-0.0198093
-0.0187404
-0.0176489
-0.0165395
-0.0154166
-0.0142836
-0.0131436
-0.0119992
-0.0108524
-0.00970471
-0.00855738
-0.00741118
-0.00626663
-0.00512392
-0.00398303
-0.00284375
-0.00170571
-0.000568476
0.000602886
0.00180913
0.0030166
0.00422604
0.00543819
0.00665348
0.00787222
0.00909443
0.0103199
0.011548
0.0127777
0.0140075
0.0152354
0.016459
0.0176751
0.0188801
0.0200697
0.0212389
0.0223818
0.0234915
0.024559
0.0255733
0.0265205
0.0273858
0.0281588
0.028843
0.0294536
0.0299372
0.030162
0.030395
0.0302658
0.0310302
0.0295725
0.0259089
0.0231975
0.0202572
0.0175878
0.0150877
0.0129046
0.0109486
0.00917102
0.00762612
0.00631913
0.00519609
0.00418247
0.00324505
0.00239353
0.00163199
0.000946311
0.000309813
-0.000309813
-0.0009463
-0.00163199
-0.00239353
-0.00324505
-0.00418247
-0.0051961
-0.00631913
-0.00762612
-0.00917102
-0.0109487
-0.0129046
-0.0150877
-0.0175878
-0.0202572
-0.0231975
-0.0259089
-0.0295725
-0.0310302
-0.0302659
-0.030395
-0.030162
-0.0299372
-0.0294536
-0.028843
-0.0281588
-0.0273858
-0.0265205
-0.0255733
-0.024559
-0.0234915
-0.0223818
-0.0212389
-0.0200697
-0.0188801
-0.0176751
-0.016459
-0.0152354
-0.0140074
-0.0127777
-0.011548
-0.0103199
-0.00909445
-0.00787222
-0.00665347
-0.00543817
-0.00422605
-0.00301658
-0.0018091
-0.000602892
0.00063996
0.00192048
0.00320273
0.00448787
0.0057769
0.00707062
0.00836964
0.00967429
0.0109846
0.0123002
0.0136203
0.0149435
0.016268
0.0175912
0.01891
0.0202207
0.021519
0.0227998
0.0240576
0.0252854
0.026474
0.0276104
0.0286761
0.0296459
0.0304967
0.0312419
0.0319964
0.0326852
0.032593
0.0332305
0.0316155
0.0278121
0.0249902
0.0219611
0.019195
0.0165349
0.0140759
0.0118299
0.00983528
0.00807331
0.00652643
0.00520043
0.00408684
0.00315682
0.00237922
0.00173775
0.00122005
0.000802288
0.000454502
0.000147135
-0.00014713
-0.000454497
-0.000802288
-0.00122005
-0.00173776
-0.00237923
-0.00315684
-0.00408685
-0.00520042
-0.00652642
-0.00807333
-0.00983528
-0.0118299
-0.0140759
-0.0165349
-0.019195
-0.0219611
-0.0249903
-0.0278121
-0.0316155
-0.0332305
-0.032593
-0.0326852
-0.0319964
-0.0312419
-0.0304967
-0.0296458
-0.028676
-0.0276104
-0.026474
-0.0252854
-0.0240576
-0.0227998
-0.021519
-0.0202207
-0.01891
-0.0175911
-0.016268
-0.0149435
-0.0136203
-0.0123002
-0.0109846
-0.00967431
-0.00836963
-0.0070706
-0.00577689
-0.00448787
-0.00320273
-0.00192045
-0.000639949
0.000679654
0.00203977
0.00340222
0.00476855
0.00614013
0.00751817
0.00890363
0.0102972
0.0116993
0.0131098
0.0145281
0.0159531
0.017383
0.0188153
0.0202469
0.0216739
0.023092
0.0244962
0.0258816
0.0272423
0.0285702
0.0298528
0.0310666
0.0321682
0.0330873
0.0337818
0.0347581
0.0363704
0.0344494
0.0302361
0.0270633
0.0237449
0.0207344
0.0178551
0.0151787
0.012691
0.0104191
0.00837826
0.0065813
0.00502262
0.00369325
0.00258818
0.00169156
0.000981208
0.000452051
0.000115721
-4.69574e-05
-9.31736e-05
-7.52748e-05
-2.78727e-05
2.78727e-05
7.52801e-05
9.31736e-05
4.69627e-05
-0.000115721
-0.000452072
-0.000981198
-0.00169157
-0.0025882
-0.00369324
-0.00502262
-0.00658131
-0.00837827
-0.0104191
-0.012691
-0.0151787
-0.0178551
-0.0207344
-0.0237449
-0.0270633
-0.0302361
-0.0344494
-0.0363704
-0.0347581
-0.0337818
-0.0330873
-0.0321682
-0.0310666
-0.0298528
-0.0285702
-0.0272423
-0.0258816
-0.0244962
-0.023092
-0.0216739
-0.0202469
-0.0188153
-0.017383
-0.0159531
-0.0145281
-0.0131098
-0.0116993
-0.0102972
-0.00890363
-0.00751815
-0.00614013
-0.00476854
-0.0034022
-0.00203975
-0.000679654
0.000721984
0.00216699
0.00361501
0.00506803
0.00652784
0.00799612
0.00947427
0.0109634
0.0124642
0.0139771
0.0155017
0.0170372
0.0185819
0.0201335
0.0216885
0.023243
0.0247923
0.0263316
0.0278569
0.0293644
0.0308506
0.0323085
0.0337191
0.0350276
0.0360611
0.0362011
0.0370492
0.035521
0.0305214
0.026345
0.0227855
0.0194833
0.0164468
0.0136322
0.0110469
0.00869306
0.0065823
0.00472397
0.00312183
0.001768
0.000654767
-0.000218778
-0.000880692
-0.0013698
-0.00166471
-0.00167851
-0.00142995
-0.00105261
-0.000634676
-0.000211229
0.000211245
0.000634661
0.00105261
0.00142996
0.00167851
0.0016647
0.00136977
0.000880671
0.000218778
-0.000654767
-0.00176801
-0.00312184
-0.00472397
-0.0065823
-0.00869306
-0.0110469
-0.0136322
-0.0164469
-0.0194833
-0.0227855
-0.026345
-0.0305214
-0.035521
-0.0370492
-0.0362012
-0.0360611
-0.0350276
-0.033719
-0.0323085
-0.0308506
-0.0293644
-0.0278569
-0.0263316
-0.0247923
-0.023243
-0.0216885
-0.0201335
-0.018582
-0.0170372
-0.0155017
-0.0139771
-0.0124642
-0.0109634
-0.00947425
-0.00799612
-0.00652784
-0.00506801
-0.00361499
-0.00216696
-0.000721974
0.000766946
0.00230207
0.00384099
0.00538616
0.00693985
0.0085043
0.0100814
0.0116726
0.0132793
0.0149023
0.0165415
0.0181966
0.019866
0.0215475
0.0232374
0.0249313
0.0266238
0.0283096
0.0299852
0.0316502
0.0333084
0.0349668
0.0366352
0.0383292
0.0401
0.0380844
0.0336518
0.0300709
0.025915
0.0219626
0.0183596
0.0150496
0.0120168
0.00924615
0.00673769
0.00449499
0.00252604
0.000837663
-0.000569338
-0.00171706
-0.00261866
-0.00323683
-0.00362841
-0.00392013
-0.00406924
-0.00374201
-0.0029477
-0.00205708
-0.0012022
-0.000394527
0.000394527
0.00120221
0.00205707
0.00294771
0.00374201
0.00406924
0.0039201
0.00362838
0.00323681
0.00261866
0.00171706
0.000569328
-0.000837657
-0.00252602
-0.00449497
-0.00673771
-0.00924618
-0.0120168
-0.0150496
-0.0183595
-0.0219626
-0.025915
-0.0300709
-0.0336518
-0.0380845
-0.0401
-0.0383292
-0.0366352
-0.0349668
-0.0333084
-0.0316502
-0.0299852
-0.0283096
-0.0266238
-0.0249313
-0.0232374
-0.0215475
-0.019866
-0.0181966
-0.0165415
-0.0149023
-0.0132793
-0.0116726
-0.0100813
-0.00850428
-0.00693986
-0.00538613
-0.00384098
-0.00230204
-0.00076692
0.000814443
0.00244491
0.00407999
0.00572269
0.00737587
0.00904231
0.0107245
0.0124245
0.0141443
0.015885
0.0176474
0.0194315
0.021236
0.0230589
0.0248963
0.0267428
0.0285915
0.0304352
0.0322692
0.0340955
0.0359258
0.0377825
0.0397005
0.0417359
0.0398747
0.0343248
0.029562
0.0253387
0.0212288
0.0173361
0.0137288
0.0104117
0.00738339
0.00464366
0.00219661
4.64598e-05
-0.00179679
-0.00332402
-0.00452046
-0.00545442
-0.00618602
-0.00649503
-0.0064915
-0.00663009
-0.00696798
-0.00628907
-0.00457482
-0.00303489
-0.00172784
-0.000560953
0.000560963
0.00172786
0.00303489
0.0045748
0.00628906
0.00696797
0.00663008
0.00649146
0.00649501
0.00618602
0.00545443
0.00452046
0.00332402
0.0017968
-4.64439e-05
-0.00219662
-0.00464366
-0.00738341
-0.0104117
-0.0137288
-0.0173361
-0.0212288
-0.0253387
-0.0295621
-0.0343248
-0.0398747
-0.0417359
-0.0397004
-0.0377825
-0.0359258
-0.0340955
-0.0322692
-0.0304353
-0.0285915
-0.0267428
-0.0248963
-0.0230589
-0.021236
-0.0194314
-0.0176474
-0.015885
-0.0141443
-0.0124245
-0.0107245
-0.0090423
-0.00737586
-0.00572265
-0.00407995
-0.00244489
-0.000814443
0.000864492
0.00259533
0.00433169
0.00607723
0.00783543
0.00960965
0.011403
0.0132184
0.0150583
0.0169246
0.0188188
0.0207414
0.0226919
0.0246685
0.0266674
0.028682
0.0307028
0.0327176
0.0347163
0.0367001
0.0386883
0.0407167
0.0428362
0.0409963
0.035286
0.0299406
0.0250734
0.020614
0.0164273
0.0125078
0.00887471
0.00553622
0.00249841
-0.000227365
-0.00262868
-0.00470648
-0.00644185
-0.00782992
-0.00875324
-0.00941778
-0.0102032
-0.0100945
-0.00924136
-0.00917038
-0.0109148
-0.00989971
-0.00604818
-0.00379349
-0.00212111
-0.000684958
0.00068498
0.00212112
0.00379348
0.00604816
0.00989971
0.0109148
0.00917036
0.00924131
0.0100945
0.0102032
0.0094178
0.00875324
0.00782992
0.00644186
0.00470646
0.00262867
0.000227365
-0.00249841
-0.00553624
-0.00887472
-0.0125078
-0.0164273
-0.020614
-0.0250734
-0.0299406
-0.035286
-0.0409963
-0.0428362
-0.0407167
-0.0386883
-0.0367001
-0.0347163
-0.0327176
-0.0307028
-0.028682
-0.0266674
-0.0246685
-0.0226919
-0.0207414
-0.0188188
-0.0169246
-0.0150583
-0.0132184
-0.011403
-0.00960962
-0.0078354
-0.0060772
-0.00433167
-0.0025953
-0.000864487
0.000916966
0.00275313
0.00459581
0.00644931
0.00831785
0.0102055
0.012116
0.0140531
0.0160201
0.0180196
0.0200541
0.0221249
0.0242326
0.0263761
0.0285522
0.030754
0.0329682
0.0351734
0.0373443
0.0394754
0.0415945
0.0437525
0.041893
0.0360801
0.0304991
0.0252205
0.0202966
0.0157155
0.0114377
0.00745428
0.00377004
0.00038855
-0.00268444
-0.00542147
-0.00778744
-0.0098215
-0.0114621
-0.012835
-0.0132837
-0.0133025
-0.0151602
-0.014484
-0.0112507
-0.00993675
-0.0094303
-0.00815164
-0.00595212
-0.00398696
-0.00228781
-0.00074585
0.000745876
0.00228783
0.00398697
0.0059521
0.00815162
0.0094303
0.00993674
0.0112507
0.014484
0.0151602
0.0133025
0.0132837
0.0128351
0.0114621
0.00982147
0.0077874
0.00542146
0.00268445
-0.00038855
-0.00377005
-0.00745429
-0.0114378
-0.0157155
-0.0202966
-0.0252206
-0.0304991
-0.0360802
-0.041893
-0.0437525
-0.0415945
-0.0394754
-0.0373444
-0.0351734
-0.0329682
-0.030754
-0.0285522
-0.0263761
-0.0242326
-0.0221249
-0.0200541
-0.0180196
-0.0160201
-0.0140531
-0.012116
-0.0102054
-0.00831782
-0.00644929
-0.00459577
-0.0027531
-0.000916971
0.000971806
0.00291802
0.00487186
0.0068383
0.00882235
0.0108288
0.0128623
0.0149273
0.017028
0.0191682
0.0213511
0.0235796
0.0258553
0.0281791
0.0305495
0.0329616
0.0354008
0.0378316
0.0401903
0.04245
0.0446583
0.0427717
0.0368604
0.0311026
0.0255542
0.0202661
0.0152743
0.0105897
0.00620995
0.00213898
-0.00161719
-0.00506331
-0.0082133
-0.0110095
-0.0133121
-0.0153735
-0.0168015
-0.0188221
-0.0183038
-0.0154085
-0.0144798
-0.0132562
-0.0113921
-0.00994088
-0.00876105
-0.00736159
-0.00564887
-0.00393272
-0.00230779
-0.000759905
0.000759942
0.0023078
0.00393271
0.00564883
0.00736156
0.00876104
0.00994089
0.0113921
0.0132562
0.0144798
0.0154085
0.0183039
0.0188222
0.0168015
0.0153735
0.0133121
0.0110095
0.0082133
0.0050633
0.00161718
-0.00213899
-0.00620995
-0.0105897
-0.0152743
-0.0202661
-0.0255542
-0.0311026
-0.0368604
-0.0427717
-0.0446583
-0.04245
-0.0401903
-0.0378316
-0.0354009
-0.0329616
-0.0305495
-0.028179
-0.0258553
-0.0235796
-0.0213511
-0.0191681
-0.017028
-0.0149273
-0.0128623
-0.0108288
-0.00882233
-0.00683828
-0.00487182
-0.00291801
-0.000971822
0.00102893
0.00308974
0.00515933
0.00724347
0.00934796
0.0114784
0.0136403
0.0158391
0.0180799
0.0203676
0.0227068
0.0251016
0.0275554
0.0300714
0.0326521
0.0353001
0.0380112
0.0407421
0.0433257
0.0456763
0.0437871
0.0377768
0.0318482
0.026063
0.0204707
0.0151123
0.0100189
0.00521097
0.000704911
-0.0034786
-0.00731948
-0.0108324
-0.0141318
-0.0171403
-0.0191376
-0.0216282
-0.0216242
-0.0191936
-0.0175443
-0.0156181
-0.0141603
-0.0127298
-0.0111727
-0.00971932
-0.00835165
-0.00691866
-0.00537503
-0.00380534
-0.00226141
-0.000749444
0.000749455
0.00226143
0.00380534
0.00537499
0.00691863
0.00835166
0.00971934
0.0111727
0.0127298
0.0141603
0.0156181
0.0175443
0.0191936
0.0216242
0.0216282
0.0191376
0.0171402
0.0141318
0.0108324
0.00731948
0.00347858
-0.000704927
-0.00521098
-0.0100189
-0.0151123
-0.0204707
-0.026063
-0.0318482
-0.0377768
-0.0437871
-0.0456763
-0.0433257
-0.0407421
-0.0380112
-0.0353001
-0.0326521
-0.0300713
-0.0275554
-0.0251016
-0.0227068
-0.0203675
-0.0180798
-0.0158391
-0.0136403
-0.0114784
-0.00934794
-0.00724346
-0.00515929
-0.00308973
-0.00102893
0.00108819
0.00326791
0.00545763
0.007664
0.00989356
0.0121529
0.0144483
0.0167863
0.019173
0.0216147
0.0241171
0.026686
0.0293265
0.0320435
0.034844
0.0377439
0.0407826
0.0439927
0.0468987
0.045117
0.0390025
0.032878
0.0268432
0.0209543
0.0152512
0.00976645
0.0045273
-0.000442718
-0.00511684
-0.0094525
-0.0133814
-0.0168631
-0.0204047
-0.0243595
-0.0245567
-0.0222357
-0.0207319
-0.0188716
-0.017142
-0.0154311
-0.0138789
-0.0123886
-0.0109012
-0.00945704
-0.0080463
-0.00661841
-0.00515216
-0.00366991
-0.0021936
-0.000729369
0.00072938
0.00219362
0.0036699
0.00515213
0.00661839
0.0080463
0.00945705
0.0109013
0.0123886
0.0138789
0.0154311
0.017142
0.0188716
0.0207319
0.0222357
0.0245567
0.0243595
0.0204047
0.0168631
0.0133814
0.00945247
0.00511683
0.000442712
-0.00452731
-0.00976649
-0.0152513
-0.0209544
-0.0268433
-0.0328781
-0.0390025
-0.045117
-0.0468987
-0.0439927
-0.0407826
-0.0377439
-0.034844
-0.0320435
-0.0293265
-0.026686
-0.0241171
-0.0216146
-0.019173
-0.0167863
-0.0144483
-0.0121528
-0.00989353
-0.00766398
-0.00545761
-0.0032679
-0.00108819
0.00114946
0.00345214
0.00576612
0.00809888
0.0104579
0.0128506
0.0152844
0.0177666
0.0203046
0.0229058
0.0255777
0.0283276
0.0311619
0.0340857
0.0371027
0.0402286
0.0435756
0.0477547
0.0471393
0.0408623
0.0344114
0.028045
0.0218198
0.01576
0.00988697
0.00422306
-0.00120987
-0.00639187
-0.0112984
-0.0158747
-0.0199505
-0.0229101
-0.0263569
-0.0272072
-0.0243658
-0.022128
-0.0202912
-0.0185058
-0.0168
-0.0151568
-0.0136001
-0.012102
-0.0106374
-0.00920538
-0.00779569
-0.00638745
-0.00496934
-0.00354568
-0.00212402
-0.000707235
0.000707241
0.00212404
0.00354567
0.00496933
0.00638744
0.00779569
0.00920538
0.0106374
0.012102
0.0136001
0.0151568
0.0168
0.0185059
0.0202912
0.022128
0.0243658
0.0272072
0.0263568
0.0229101
0.0199505
0.0158747
0.0112984
0.00639186
0.00120985
-0.00422309
-0.00988699
-0.01576
-0.0218198
-0.028045
-0.0344115
-0.0408623
-0.0471393
-0.0477547
-0.0435756
-0.0402286
-0.0371027
-0.0340857
-0.0311619
-0.0283276
-0.0255777
-0.0229058
-0.0203046
-0.0177666
-0.0152844
-0.0128506
-0.0104579
-0.00809886
-0.0057661
-0.00345214
-0.00114946
0.00121258
0.00364197
0.00608403
0.00854715
0.0110397
0.0135701
0.0161465
0.0187775
0.0214713
0.024237
0.0270837
0.0300208
0.0330573
0.0361974
0.0394288
0.0426827
0.0457418
0.0482953
0.0450223
0.0369732
0.0298982
0.0232035
0.016735
0.0104548
0.00436203
-0.00152918
-0.00720118
-0.0126439
-0.0178605
-0.022869
-0.0277262
-0.0285742
-0.0267857
-0.025631
-0.0236833
-0.0217213
-0.0198929
-0.0181464
-0.0164735
-0.0148668
-0.013326
-0.0118387
-0.0103909
-0.0089746
-0.00758029
-0.00619644
-0.00481548
-0.00343613
-0.0020596
-0.000686102
0.000686107
0.00205959
0.00343614
0.00481547
0.00619643
0.00758029
0.00897463
0.0103909
0.0118387
0.0133261
0.0148668
0.0164735
0.0181464
0.0198929
0.0217214
0.0236833
0.025631
0.0267857
0.0285742
0.0277262
0.022869
0.0178605
0.0126439
0.00720117
0.00152914
-0.00436205
-0.0104548
-0.016735
-0.0232035
-0.0298983
-0.0369733
-0.0450224
-0.0482953
-0.0457418
-0.0426827
-0.0394288
-0.0361974
-0.0330572
-0.0300208
-0.0270837
-0.024237
-0.0214713
-0.0187774
-0.0161465
-0.01357
-0.0110397
-0.00854713
-0.00608401
-0.00364197
-0.00121259
0.00127741
0.00383694
0.00641056
0.00900764
0.0116375
0.0143094
0.0170326
0.0198163
0.0226701