/*--------------------------------*- C++ -*----------------------------------*\
  =========                 |
  \\      /  F ield         | OpenFOAM: The Open Source CFD Toolbox
   \\    /   O peration     | Website:  https://openfoam.org
    \\  /    A nd           | Version:  7
     \\/     M anipulation  |
\*---------------------------------------------------------------------------*/
FoamFile
{
    version     2.0;
    format      ascii;
    class       volScalarField;
    location    "0.018";
    object      gradTy;
}
// * * * * * * * * * * * * * * * * * * * * * * * * * * * * * * * * * * * * * //

dimensions      [0 -1 0 1 0 0 0];

internalField   nonuniform List<scalar> 
10000
(
0.000350772
0.000353086
0.000357744
0.000364722
0.000374066
0.000385781
0.000399884
0.000416428
0.000435444
0.000456943
0.000480961
0.000507542
0.000536717
0.000568497
0.000602913
0.000639955
0.000679638
0.00072199
0.000766925
0.000814454
0.000864492
0.000916993
0.000971843
0.00102896
0.00108819
0.00114944
0.00121259
0.00127742
0.00134377
0.00141142
0.00148016
0.00154969
0.00161968
0.00168974
0.00175938
0.00182813
0.00189542
0.00196071
0.00202347
0.00208325
0.00213968
0.00219241
0.00224109
0.00228527
0.00232434
0.00235765
0.00238464
0.00240499
0.00241854
0.00242531
0.00242531
0.00241854
0.002405
0.00238465
0.00235766
0.00232435
0.00228527
0.0022411
0.00219241
0.00213966
0.00208325
0.00202347
0.00196071
0.00189542
0.00182813
0.00175938
0.00168972
0.00161968
0.00154967
0.00148015
0.00141142
0.00134376
0.00127741
0.00121258
0.00114946
0.00108819
0.00102892
0.000971822
0.000916971
0.000864487
0.000814449
0.00076693
0.000721984
0.000679654
0.000639944
0.000602897
0.000568491
0.000536712
0.000507526
0.000480956
0.000456937
0.000435444
0.000416444
0.000399895
0.000385792
0.000374066
0.000364732
0.000357744
0.000353091
0.000350772
0.00105185
0.00105882
0.00107278
0.00109374
0.00112179
0.00115697
0.00119935
0.00124902
0.00130608
0.00137066
0.0014428
0.00152264
0.00161026
0.00170574
0.00180914
0.00192046
0.00203975
0.00216697
0.00230206
0.0024449
0.00259531
0.00275311
0.00291803
0.00308974
0.00326792
0.00345214
0.00364197
0.00383694
0.0040365
0.00424004
0.00444683
0.00465607
0.00486675
0.00507769
0.0052875
0.00549458
0.0056973
0.00589397
0.00608299
0.006263
0.00643286
0.00659165
0.00673839
0.00687173
0.00698977
0.0070904
0.00717185
0.00723311
0.00727383
0.00729409
0.0072941
0.00727382
0.00723311
0.00717186
0.0070904
0.00698976
0.00687172
0.00673839
0.00659164
0.00643285
0.00626299
0.00608299
0.00589397
0.0056973
0.00549459
0.00528749
0.00507768
0.00486674
0.00465606
0.0044468
0.00424
0.00403648
0.00383692
0.00364196
0.00345211
0.0032679
0.00308973
0.002918
0.0027531
0.00259531
0.00244489
0.00230206
0.00216697
0.00203976
0.00192047
0.00180912
0.00170572
0.00161024
0.00152263
0.00144279
0.00137064
0.00130608
0.00124902
0.00119935
0.00115697
0.00112179
0.00109376
0.00107278
0.00105881
0.00105185
0.00175153
0.00176316
0.00178645
0.00182148
0.00186828
0.00192702
0.00199778
0.00208073
0.00217603
0.00228387
0.0024044
0.00253778
0.00268419
0.00284375
0.00301658
0.00320273
0.00340221
0.003615
0.00384101
0.00407998
0.00433168
0.0045958
0.00487184
0.00515931
0.00545763
0.00576611
0.00608402
0.00641056
0.00674483
0.00708588
0.00743254
0.00778345
0.008137
0.00849116
0.00884363
0.00919168
0.00953243
0.00986294
0.0101805
0.0104826
0.0107676
0.0110341
0.011281
0.0115059
0.0117056
0.0118758
0.0120131
0.0121158
0.0121838
0.0122175
0.0122175
0.0121838
0.0121158
0.0120131
0.0118757
0.0117056
0.0115059
0.0112809
0.0110341
0.0107676
0.0104826
0.0101805
0.00986293
0.00953241
0.00919166
0.00884361
0.00849115
0.00813697
0.00778344
0.00743252
0.00708586
0.00674481
0.00641054
0.00608399
0.00576608
0.00545761
0.00515929
0.0048718
0.00459575
0.00433165
0.00407995
0.00384097
0.00361499
0.00340221
0.00320272
0.00301657
0.00284373
0.00268417
0.00253777
0.00240438
0.00228386
0.00217603
0.00208072
0.00199776
0.001927
0.00186827
0.00182145
0.00178645
0.00176315
0.0017515
0.00244881
0.00246515
0.00249784
0.00254697
0.00261267
0.00269511
0.00279445
0.00291092
0.00304477
0.00319621
0.00336553
0.00355296
0.00375872
0.00398303
0.00422605
0.00448788
0.00476855
0.00506803
0.00538614
0.00572268
0.00607722
0.00644931
0.0068383
0.00724347
0.00766399
0.00809888
0.00854714
0.00900763
0.00947919
0.00996043
0.0104499
0.0109457
0.0114457
0.0119471
0.0124465
0.01294
0.0134232
0.0138918
0.0143417
0.0147691
0.0151718
0.0155485
0.0158987
0.0162197
0.0165061
0.0167499
0.0169454
0.0170904
0.0171853
0.0172321
0.0172321
0.0171853
0.0170904
0.0169454
0.0167499
0.0165061
0.0162198
0.0158987
0.0155485
0.0151718
0.0147691
0.0143417
0.0138918
0.0134232
0.0129399
0.0124465
0.0119471
0.0114457
0.0109457
0.0104499
0.00996041
0.00947916
0.00900762
0.00854712
0.00809887
0.00766395
0.00724343
0.00683826
0.00644926
0.00607718
0.00572265
0.00538613
0.00506802
0.00476853
0.00448787
0.00422603
0.00398302
0.00375871
0.00355294
0.00336552
0.00319621
0.00304477
0.00291091
0.00279444
0.00269509
0.00261266
0.00254695
0.00249782
0.00246513
0.00244879
0.00314271
0.00316375
0.00320592
0.0032693
0.00335406
0.0034604
0.0035886
0.00373892
0.00391168
0.00410723
0.0043259
0.00456803
0.00483395
0.00512393
0.00543818
0.0057769
0.00614014
0.00652783
0.00693986
0.00737588
0.00783541
0.00831784
0.00882235
0.00934796
0.00989357
0.0104579
0.0110397
0.0116375
0.0122498
0.012875
0.0135113
0.0141565
0.014808
0.0154622
0.0161147
0.0167602
0.0173926
0.0180055
0.0185933
0.0191504
0.0196736
0.0201629
0.0206204
0.0210448
0.0214267
0.0217512
0.0220081
0.0221952
0.0223158
0.0223745
0.0223745
0.0223158
0.0221952
0.0220081
0.0217512
0.0214267
0.0210448
0.0206205
0.0201629
0.0196736
0.0191504
0.0185933
0.0180055
0.0173925
0.0167602
0.0161147
0.0154622
0.014808
0.0141565
0.0135113
0.012875
0.0122498
0.0116375
0.0110397
0.0104579
0.00989352
0.00934791
0.00882231
0.00831781
0.0078354
0.00737585
0.00693984
0.00652783
0.00614013
0.00577688
0.00543817
0.0051239
0.00483394
0.00456804
0.0043259
0.00410723
0.00391169
0.00373893
0.00358858
0.00346038
0.00335404
0.00326929
0.00320591
0.00316376
0.00314271
0.00383214
0.00385797
0.00390969
0.00398746
0.00409147
0.004222
0.00437937
0.00456394
0.00477614
0.00501637
0.00528512
0.00558279
0.00590985
0.00626664
0.00665349
0.00707063
0.00751818
0.00799612
0.00850429
0.00904233
0.00960965
0.0102055
0.0108288
0.0114784
0.0121529
0.0128507
0.0135701
0.0143094
0.0150669
0.0158406
0.0166288
0.0174291
0.0182385
0.0190529
0.0198669
0.0206733
0.0214639
0.0222299
0.0229634
0.0236563
0.0243021
0.0249043
0.0254725
0.0260112
0.0265055
0.0269224
0.0272438
0.0274706
0.0276127
0.0276806
0.0276806
0.0276127
0.0274706
0.0272438
0.0269224
0.0265056
0.0260112
0.0254725
0.0249043
0.0243021
0.0236563
0.0229634
0.0222299
0.0214639
0.0206733
0.0198669
0.0190529
0.0182385
0.0174291
0.0166288
0.0158406
0.0150668
0.0143094
0.01357
0.0128506
0.0121528
0.0114784
0.0108288
0.0102055
0.00960963
0.0090423
0.00850427
0.0079961
0.00751815
0.0070706
0.00665347
0.00626663
0.00590984
0.0055828
0.00528512
0.00501637
0.00477613
0.00456394
0.00437937
0.004222
0.00409146
0.00398746
0.00390969
0.00385797
0.00383216
0.00451595
0.0045466
0.00460802
0.00470034
0.00482384
0.00497884
0.00516577
0.0053851
0.00563731
0.00592296
0.00624261
0.00659685
0.00698621
0.00741118
0.00787221
0.00836963
0.00890363
0.00947425
0.0100813
0.0107245
0.011403
0.012116
0.0128623
0.0136403
0.0144483
0.0152844
0.0161465
0.0170325
0.0179404
0.0188683
0.0198142
0.0207761
0.0217512
0.0227351
0.0237213
0.0247006
0.0256615
0.0265921
0.0274829
0.0283207
0.0290888
0.0297966
0.0304739
0.0311441
0.0317862
0.0323149
0.0327017
0.0329594
0.033113
0.033184
0.033184
0.033113
0.0329593
0.0327017
0.0323149
0.0317861
0.0311441
0.0304739
0.0297966
0.0290888
0.0283207
0.0274829
0.026592
0.0256615
0.0247006
0.0237213
0.0227351
0.0217512
0.0207761
0.0198142
0.0188683
0.0179404
0.0170325
0.0161465
0.0152844
0.0144483
0.0136403
0.0128623
0.012116
0.011403
0.0107245
0.0100813
0.00947423
0.00890362
0.00836963
0.00787221
0.00741118
0.00698621
0.00659683
0.0062426
0.00592294
0.00563728
0.00538509
0.00516578
0.00497885
0.00482385
0.00470034
0.00460802
0.00454662
0.00451598
0.00519294
0.00522848
0.00529968
0.00540674
0.00554999
0.00572983
0.00594677
0.00620136
0.00649423
0.0068261
0.00719765
0.00760957
0.00806259
0.00855736
0.00909444
0.0096743
0.0102972
0.0109634
0.0116726
0.0124245
0.0132184
0.0140532
0.0149273
0.0158391
0.0167863
0.0177666
0.0187774
0.0198162
0.0208806
0.0219686
0.0230787
0.0242094
0.0253589
0.0265233
0.0276955
0.0288633
0.0300109
0.0311195
0.0321848
0.033188
0.0340726
0.0348594
0.035625
0.036451
0.0373286
0.0380005
0.0384415
0.0387059
0.0388504
0.0389133
0.0389133
0.0388504
0.0387059
0.0384415
0.0380005
0.0373286
0.036451
0.035625
0.0348594
0.0340727
0.0331879
0.0321848
0.0311195
0.0300109
0.0288633
0.0276955
0.0265232
0.0253589
0.0242094
0.0230787
0.0219686
0.0208806
0.0198162
0.0187774
0.0177666
0.0167863
0.015839
0.0149273
0.0140531
0.0132184
0.0124245
0.0116726
0.0109634
0.0102972
0.0096743
0.00909444
0.00855737
0.0080626
0.00760958
0.00719764
0.00682609
0.00649424
0.00620136
0.00594679
0.00572987
0.00555003
0.00540676
0.00529969
0.0052285
0.00519295
0.00586172
0.00590223
0.00598334
0.00610536
0.00626865
0.00647371
0.00672111
0.00701155
0.00734583
0.00772479
0.00814926
0.00862016
0.00913837
0.00970469
0.0103199
0.0109846
0.0116993
0.0124642
0.0132793
0.0141443
0.0150582
0.0160201
0.017028
0.0180799
0.019173
0.0203046
0.0214713
0.0226701
0.0238978
0.0251525
0.026433
0.0277397
0.0290725
0.0304296
0.0318052
0.0331828
0.0345407
0.035837
0.0371001
0.0383294
0.039314
0.0401062
0.0408822
0.0418765
0.0432505
0.0440941
0.0445367
0.0447525
0.04485
0.0448865
0.0448865
0.04485
0.0447525
0.0445367
0.0440941
0.0432505
0.0418765
0.0408822
0.0401062
0.039314
0.0383294
0.0371
0.0358369
0.0345407
0.0331828
0.0318052
0.0304296
0.0290725
0.0277396
0.026433
0.0251524
0.0238978
0.02267
0.0214713
0.0203046
0.019173
0.0180798
0.017028
0.01602
0.0150582
0.0141443
0.0132793
0.0124642
0.0116993
0.0109846
0.0103199
0.00970469
0.00913836
0.00862017
0.00814926
0.0077248
0.00734584
0.00701157
0.00672111
0.00647371
0.00626867
0.00610539
0.00598338
0.00590225
0.00586175
0.00652088
0.0065664
0.00665761
0.00679479
0.00697838
0.00720901
0.00748737
0.00781432
0.00819078
0.00861775
0.0090963
0.00962755
0.0102125
0.0108524
0.011548
0.0123002
0.0131098
0.0139771
0.0149022
0.015885
0.0169246
0.0180196
0.0191682
0.0203676
0.0216147
0.0229058
0.024237
0.0256041
0.0270029
0.0284307
0.0298876
0.0313757
0.0328999
0.0344616
0.0360632
0.0376785
0.0392946
0.0407557
0.0422228
0.0438948
0.0449313
0.0455563
0.0461114
0.0471171
0.0499038
0.0507931
0.0510651
0.0511247
0.0511183
0.0511043
0.0511043
0.0511183
0.0511247
0.0510651
0.0507931
0.0499038
0.0471171
0.0461114
0.0455563
0.0449313
0.0438948
0.0422228
0.0407556
0.0392946
0.0376784
0.0360632
0.0344616
0.0328998
0.0313757
0.0298876
0.0284307
0.0270029
0.0256041
0.024237
0.0229058
0.0216146
0.0203676
0.0191681
0.0180196
0.0169246
0.015885
0.0149023
0.0139771
0.0131098
0.0123002
0.011548
0.0108524
0.0102125
0.00962755
0.00909631
0.00861775
0.00819078
0.00781432
0.00748738
0.00720901
0.0069784
0.0067948
0.00665764
0.00656645
0.00652093
0.00716884
0.00721945
0.00732085
0.00747337
0.00767758
0.00793417
0.00824401
0.00860808
0.00902749
0.00950346
0.0100373
0.0106303
0.0112838
0.0119992
0.0127777
0.0136203
0.0145281
0.0155017
0.0165415
0.0176474
0.0188187
0.0200541
0.0213511
0.0227068
0.0241171
0.0255777
0.0270837
0.0286294
0.0302082
0.0318157
0.0334531
0.0351248
0.0368454
0.0386164
0.0404774
0.0423501
0.0443878
0.0458588
0.0473378
0.0503002
0.0511689
0.0512879
0.051104
0.0507948
0.0504453
0.050104
0.0498016
0.049559
0.0493902
0.0493037
0.0493037
0.0493901
0.049559
0.0498016
0.050104
0.0504453
0.0507948
0.051104
0.0512879
0.0511689
0.0503001
0.0473378
0.0458588
0.0443878
0.04235
0.0404774
0.0386163
0.0368454
0.0351247
0.0334531
0.0318157
0.0302082
0.0286294
0.0270837
0.0255777
0.0241171
0.0227068
0.0213511
0.0200541
0.0188188
0.0176474
0.0165415
0.0155017
0.0145281
0.0136203
0.0127777
0.0119992
0.0112838
0.0106303
0.0100373
0.00950348
0.00902752
0.00860809
0.00824402
0.0079342
0.0076776
0.00747339
0.00732086
0.00721947
0.00716887
0.00780387
0.00785962
0.00797133
0.00813944
0.00836454
0.00864747
0.00898926
0.00939106
0.00985422
0.0103802
0.0109705
0.0116267
0.0123506
0.0131436
0.0140075
0.0149435
0.0159531
0.0170372
0.0181966
0.0194314
0.0207414
0.0221249
0.0235796
0.0251015
0.026686
0.0283276
0.0300208
0.0317586
0.0335291
0.0353223
0.037143
0.038991
0.0409144
0.0428626
0.04507
0.0470547
0.050255
0.0511675
0.0511893
0.0507923
0.050153
0.0493194
0.0482182
0.0465074
0.0429716
0.041367
0.0404679
0.039908
0.0395673
0.0394039
0.0394039
0.0395673
0.039908
0.040468
0.041367
0.0429716
0.0465074
0.0482182
0.0493194
0.050153
0.0507923
0.0511893
0.0511675
0.050255
0.0470547
0.04507
0.0428626
0.0409144
0.038991
0.037143
0.0353223
0.0335291
0.0317586
0.0300208
0.0283276
0.026686
0.0251016
0.0235796
0.0221249
0.0207414
0.0194315
0.0181966
0.0170372
0.0159531
0.0149435
0.0140074
0.0131436
0.0123506
0.0116267
0.0109705
0.0103802
0.00985426
0.00939109
0.00898928
0.00864749
0.00836455
0.00813945
0.00797135
0.00785964
0.00780391
0.00842414
0.00848508
0.00860722
0.00879106
0.00903731
0.00934695
0.00972113
0.0101613
0.0106689
0.0112458
0.0118938
0.0126147
0.0134107
0.0142836
0.0152354
0.016268
0.017383
0.0185819
0.019866
0.021236
0.0226919
0.0242326
0.0258553
0.0275554
0.0293265
0.0311619
0.0330573
0.0350066
0.036987
0.0389687
0.0409814
0.0429656
0.0451507
0.0470508
0.0500957
0.0507631
0.0504032
0.0493642
0.0474568
0.0435216
0.0413235
0.0396064
0.0379246
0.0360196
0.0337651
0.0321158
0.0309822
0.0302221
0.0297499
0.0295226
0.0295226
0.0297499
0.0302221
0.0309822
0.0321158
0.0337651
0.0360196
0.0379246
0.0396064
0.0413234
0.0435216
0.0474568
0.0493642
0.0504032
0.0507631
0.0500957
0.0470508
0.0451507
0.0429656
0.0409814
0.0389687
0.036987
0.0350066
0.0330573
0.0311619
0.0293265
0.0275554
0.0258554
0.0242326
0.0226919
0.021236
0.0198661
0.0185819
0.017383
0.016268
0.0152354
0.0142836
0.0134107
0.0126147
0.0118938
0.0112458
0.0106689
0.0101613
0.00972115
0.00934696
0.00903732
0.00879108
0.00860724
0.0084851
0.00842416
0.00902765
0.00909384
0.00922652
0.00942624
0.00969384
0.0100305
0.0104375
0.0109165
0.0114693
0.012098
0.0128048
0.0135918
0.0144616
0.0154166
0.016459
0.0175912
0.0188153
0.0201335
0.0215475
0.0230589
0.0246685
0.0263761
0.028179
0.0300713
0.0320435
0.0340857
0.0361974
0.0383901
0.040619
0.0427681
0.0450413
0.046941
0.0498834
0.0503137
0.0494919
0.0474943
0.0432244
0.040418
0.0377317
0.0347156
0.0322043
0.0300415
0.0280299
0.026048
0.0241099
0.0224975
0.0212664
0.0203882
0.0198253
0.0195506
0.0195506
0.0198253
0.0203882
0.0212664
0.0224975
0.0241099
0.0260479
0.0280299
0.0300415
0.0322043
0.0347155
0.0377317
0.040418
0.0432244
0.0474943
0.0494919
0.0503137
0.0498834
0.046941
0.0450414
0.0427681
0.0406189
0.0383901
0.0361974
0.0340857
0.0320435
0.0300713
0.0281791
0.0263761
0.0246686
0.0230589
0.0215475
0.0201335
0.0188153
0.0175912
0.016459
0.0154166
0.0144617
0.0135919
0.0128048
0.012098
0.0114693
0.0109165
0.0104375
0.0100305
0.00969384
0.00942622
0.00922651
0.00909385
0.00902765
0.00961225
0.00968373
0.009827
0.0100427
0.0103318
0.0106957
0.0111358
0.0116541
0.0122527
0.012934
0.0137006
0.0145551
0.0155005
0.0165395
0.0176751
0.01891
0.0202469
0.0216885
0.0232374
0.0248963
0.0266674
0.0285522
0.0305495
0.0326521
0.034844
0.0371027
0.0394288
0.0419191
0.0445223
0.0466446
0.0496861
0.0500931
0.0491206
0.0468225
0.0420537
0.0384782
0.034783
0.0315396
0.0285117
0.0255659
0.0228862
0.0204648
0.0182354
0.0161532
0.0142407
0.0126023
0.011296
0.0103334
0.00970428
0.00939427
0.00939427
0.00970428
0.0103334
0.011296
0.0126023
0.0142407
0.0161532
0.0182354
0.0204648
0.0228862
0.0255659
0.0285117
0.0315396
0.034783
0.0384782
0.0420537
0.0468225
0.0491206
0.0500931
0.0496861
0.0466446
0.0445223
0.0419191
0.0394288
0.0371027
0.034844
0.0326521
0.0305495
0.0285522
0.0266674
0.0248963
0.0232374
0.0216885
0.0202469
0.01891
0.0176751
0.0165395
0.0155005
0.0145551
0.0137006
0.012934
0.0122527
0.0116541
0.0111358
0.0106957
0.0103318
0.0100427
0.00982699
0.00968371
0.00961224
0.0101757
0.0102524
0.0104063
0.0106381
0.0109488
0.01134
0.0118135
0.0123715
0.0130163
0.0137509
0.0145781
0.0155013
0.0165237
0.0176489
0.0188801
0.0202207
0.0216739
0.023243
0.0249313
0.0267428
0.028682
0.030754
0.0329616
0.0353001
0.0377439
0.0402286
0.0426827
0.0455331
0.0491159
0.0498205
0.0489571
0.0466179
0.0416718
0.0377799
0.033618
0.0297611
0.0260518
0.0225924
0.0193424
0.0162692
0.0134164
0.0107914
0.00837842
0.00616386
0.00416354
0.00243345
0.0010342
-7.04096e-06
-0.000690951
-0.00102863
-0.00102863
-0.000690951
-7.04626e-06
0.0010342
0.00243345
0.00416352
0.00616386
0.00837841
0.0107914
0.0134163
0.0162692
0.0193424
0.0225924
0.0260518
0.0297611
0.033618
0.0377799
0.0416718
0.0466179
0.0489571
0.0498205
0.0491159
0.0455331
0.0426827
0.0402286
0.0377439
0.0353001
0.0329616
0.030754
0.028682
0.0267428
0.0249313
0.023243
0.0216739
0.0202207
0.0188801
0.0176489
0.0165237
0.0155013
0.0145781
0.0137509
0.0130163
0.0123715
0.0118135
0.01134
0.0109488
0.0106381
0.0104063
0.0102525
0.0101757
0.0107155
0.0107976
0.0109621
0.0112099
0.0115422
0.0119608
0.0124677
0.0130654
0.0137568
0.014545
0.0154337
0.0164265
0.0175274
0.0187404
0.0200697
0.021519
0.023092
0.0247923
0.0266238
0.0285915
0.0307028
0.0329682
0.0354009
0.0380112
0.0407826
0.0435756
0.0457418
0.0486283
0.0485775
0.0465567
0.041692
0.0377267
0.0333632
0.0291834
0.0250343
0.0210352
0.0171925
0.0135416
0.0100865
0.00682815
0.0037812
0.000956491
-0.001638
-0.00401103
-0.00616463
-0.00805497
-0.00958088
-0.010705
-0.0114358
-0.0117942
-0.0117941
-0.0114358
-0.010705
-0.00958088
-0.00805497
-0.00616462
-0.00401105
-0.001638
0.000956475
0.00378118
0.00682813
0.0100865
0.0135416
0.0171925
0.0210352
0.0250343
0.0291834
0.0333632
0.0377268
0.041692
0.0465567
0.0485775
0.0486283
0.0457418
0.0435756
0.0407826
0.0380112
0.0354008
0.0329682
0.0307028
0.0285915
0.0266238
0.0247923
0.023092
0.021519
0.0200697
0.0187404
0.0175273
0.0164264
0.0154337
0.014545
0.0137568
0.0130654
0.0124677
0.0119608
0.0115422
0.0112099
0.0109621
0.0107976
0.0107156
0.0112293
0.0113166
0.0114916
0.0117554
0.0121092
0.0125551
0.0130953
0.0137328
0.0144707
0.0153128
0.0162632
0.0173263
0.0185067
0.0198093
0.0212389
0.0227999
0.0244963
0.0263317
0.0283096
0.0304353
0.0327176
0.0351734
0.0378316
0.0407421
0.0439927
0.0477547
0.0482953
0.0466484
0.0419958
0.038114
0.0337223
0.0294103
0.025027
0.0206926
0.0164181
0.0122516
0.008222
0.00435854
0.000681412
-0.0027921
-0.00605827
-0.009104
-0.0118833
-0.014424
-0.0167846
-0.0189453
-0.0206423
-0.021846
-0.0226063
-0.0229729
-0.0229729
-0.0226062
-0.021846
-0.0206424
-0.0189453
-0.0167846
-0.014424
-0.0118833
-0.00910401
-0.00605829
-0.00279211
0.000681396
0.00435851
0.00822201
0.0122517
0.0164181
0.0206926
0.025027
0.0294102
0.0337223
0.038114
0.0419959
0.0466484
0.0482953
0.0477547
0.0439927
0.0407421
0.0378316
0.0351734
0.0327176
0.0304352
0.0283096
0.0263316
0.0244963
0.0227999
0.0212389
0.0198093
0.0185067
0.0173262
0.0162632
0.0153128
0.0144707
0.0137328
0.0130954
0.0125551
0.0121092
0.0117554
0.0114916
0.0113166
0.0112293
0.0117143
0.0118068
0.0119922
0.0122717
0.0126469
0.0131198
0.0136931
0.01437
0.0151543
0.0160501
0.0170622
0.0181958
0.0194564
0.0208499
0.0223818
0.0240576
0.0258816
0.0278569
0.0299852
0.0322692
0.0347163
0.0373443
0.0401903
0.0433257
0.0468987
0.0471393
0.0450223
0.0396522
0.0348401
0.0303597
0.0258312
0.021303
0.0167596
0.0122395
0.00777104
0.00338922
-0.000875557
-0.00498987
-0.00892355
-0.0126322
-0.016146
-0.0194729
-0.0224222
-0.0250838
-0.0276825
-0.030387
-0.0322931
-0.0335319
-0.0342754
-0.0346251
-0.0346251
-0.0342753
-0.0335319
-0.0322931
-0.030387
-0.0276825
-0.0250838
-0.0224222
-0.019473
-0.016146
-0.0126322
-0.00892356
-0.00498987
-0.000875573
0.00338922
0.00777105
0.0122395
0.0167596
0.021303
0.0258312
0.0303597
0.0348401
0.0396522
0.0450223
0.0471393
0.0468987
0.0433257
0.0401903
0.0373443
0.0347163
0.0322692
0.0299852
0.0278569
0.0258816
0.0240576
0.0223818
0.0208499
0.0194564
0.0181958
0.0170622
0.0160501
0.0151543
0.01437
0.0136931
0.0131198
0.0126469
0.0122718
0.0119923
0.0118068
0.0117144
0.0121679
0.0122654
0.0124611
0.0127561
0.0131522
0.0136517
0.0142575
0.0149734
0.0158033
0.0167523
0.0178257
0.0190295
0.0203704
0.0218554
0.0234915
0.0252854
0.0272422
0.0293644
0.0316502
0.0340955
0.0367001
0.0394754
0.04245
0.0456763
0.045117
0.0408623
0.0369732
0.0322839
0.0275164
0.0227962
0.0180615
0.0133113
0.00854816
0.00379292
-0.000925346
-0.00557345
-0.0101268
-0.0145413
-0.0187944
-0.0227252
-0.0264951
-0.0303098
-0.0333528
-0.0359227
-0.0386031
-0.0427682
-0.0447608
-0.0458687
-0.0464972
-0.0467876
-0.0467876
-0.0464972
-0.0458687
-0.0447608
-0.0427682
-0.0386031
-0.0359227
-0.0333528
-0.0303098
-0.0264951
-0.0227252
-0.0187944
-0.0145413
-0.0101268
-0.00557345
-0.000925362
0.00379292
0.00854819
0.0133113
0.0180616
0.0227962
0.0275164
0.0322839
0.0369732
0.0408623
0.045117
0.0456763
0.04245
0.0394754
0.0367001
0.0340954
0.0316502
0.0293644
0.0272422
0.0252853
0.0234915
0.0218554
0.0203705
0.0190295
0.0178257
0.0167523
0.0158034
0.0149734
0.0142576
0.0136517
0.0131522
0.0127562
0.0124612
0.0122655
0.0121679
0.0125871
0.0126896
0.0128953
0.0132054
0.0136219
0.0141474
0.0147851
0.0155389
0.0164137
0.0174147
0.0185483
0.0198214
0.0212418
0.022818
0.024559
0.026474
0.0285702
0.0308506
0.0333084
0.0359258
0.0386883
0.0415945
0.0446583
0.043787
0.0390025
0.0344114
0.0298982
0.025146
0.020275
0.0153549
0.0103932
0.00539613
0.000370048
-0.00467168
-0.00969508
-0.0146557
-0.019563
-0.0243211
-0.029074
-0.0330843
-0.0369221
-0.0420584
-0.044911
-0.0468177
-0.0482177
-0.04928
-0.0500803
-0.0506573
-0.0510323
-0.0512173
-0.0512172
-0.0510323
-0.0506573
-0.0500803
-0.04928
-0.0482177
-0.0468176
-0.044911
-0.0420584
-0.0369221
-0.0330843
-0.029074
-0.0243211
-0.019563
-0.0146557
-0.00969507
-0.00467169
0.000370053
0.00539616
0.0103932
0.0153549
0.020275
0.025146
0.0298982
0.0344114
0.0390025
0.0437871
0.0446583
0.0415945
0.0386883
0.0359258
0.0333084
0.0308506
0.0285702
0.026474
0.024559
0.022818
0.0212418
0.0198214
0.0185483
0.0174148
0.0164137
0.015539
0.0147851
0.0141474
0.013622
0.0132055
0.0128953
0.0126896
0.0125871
0.0129691
0.0130764
0.0132918
0.0136166
0.0140529
0.0146035
0.015272
0.0160628
0.0169809
0.0180325
0.0192245
0.0205649
0.0220628
0.0237283
0.0255733
0.0276104
0.0298528
0.0323085
0.0349668
0.0377825
0.0407167
0.0437525
0.0427717
0.0377767
0.032878
0.028045
0.0232035
0.0182459
0.0131791
0.00802859
0.00281029
-0.00246331
-0.00778923
-0.013175
-0.0185714
-0.0238584
-0.0292384
-0.034218
-0.0402306
-0.0437686
-0.0462213
-0.0480452
-0.049383
-0.0501959
-0.0501535
-0.0480422
-0.0476154
-0.0476429
-0.0477546
-0.0478296
-0.0478296
-0.0477546
-0.0476429
-0.0476154
-0.0480422
-0.0501535
-0.0501959
-0.049383
-0.0480452
-0.0462213
-0.0437686
-0.0402306
-0.034218
-0.0292384
-0.0238584
-0.0185714
-0.013175
-0.00778923
-0.00246329
0.0028103
0.0080286
0.0131791
0.0182459
0.0232035
0.028045
0.0328781
0.0377767
0.0427717
0.0437525
0.0407167
0.0377825
0.0349668
0.0323085
0.0298528
0.0276104
0.0255733
0.0237284
0.0220628
0.0205649
0.0192245
0.0180326
0.016981
0.0160628
0.0152721
0.0146036
0.0140529
0.0136166
0.0132918
0.0130765
0.0129691
0.013311
0.013423
0.0136476
0.0139865
0.0144418
0.0150166
0.0157147
0.0165409
0.0175006
0.0186007
0.0198486
0.0212534
0.0228252
0.0245762
0.0265205
0.028676
0.0310665
0.033719
0.0366352
0.0397004
0.0428362
0.041893
0.0368604
0.0318482
0.0268432
0.0218198
0.016735
0.0115421
0.00623043
0.000809266
-0.00470244
-0.0102803
-0.0159234
-0.0217276
-0.0276422
-0.0330778
-0.0394488
-0.0432398
-0.0458074
-0.0475004
-0.0481231
-0.0465006
-0.0463689
-0.0464225
-0.0461514
-0.0453439
-0.0449184
-0.0447668
-0.0447368
-0.0447404
-0.0447404
-0.0447368
-0.0447668
-0.0449185
-0.0453439
-0.0461514
-0.0464225
-0.0463688
-0.0465006
-0.048123
-0.0475004
-0.0458074
-0.0432398
-0.0394488
-0.0330778
-0.0276421
-0.0217276
-0.0159234
-0.0102802
-0.00470241
0.000809292
0.00623046
0.0115421
0.016735
0.0218198
0.0268433
0.0318482
0.0368604
0.041893
0.0428362
0.0397004
0.0366352
0.033719
0.0310666
0.028676
0.0265205
0.0245762
0.0228252
0.0212534
0.0198486
0.0186007
0.0175007
0.0165409
0.0157147
0.0150166
0.0144418
0.0139865
0.0136477
0.013423
0.013311
0.0136098
0.0137262
0.0139597
0.014312
0.0147854
0.0153832
0.0161094
0.0169692
0.0179684
0.0191142
0.0204149
0.0218802
0.0235213
0.0253513
0.0273858
0.0296458
0.0321682
0.0350276
0.0383292
0.0417359
0.0409963
0.0360801
0.0311026
0.026063
0.0209543
0.01576
0.0104547
0.00501296
-0.000577661
-0.00631383
-0.0121691
-0.018078
-0.0239689
-0.0302694
-0.0373189
-0.041514
-0.0441812
-0.0454444
-0.0442306
-0.0442826
-0.0442533
-0.0436817
-0.0433856
-0.0431909
-0.0429018
-0.0424762
-0.0421586
-0.0419795
-0.0418958
-0.0418653
-0.0418653
-0.0418958
-0.0419795
-0.0421586
-0.0424762
-0.0429018
-0.0431909
-0.0433856
-0.0436817
-0.0442533
-0.0442825
-0.0442306
-0.0454444
-0.0441812
-0.041514
-0.0373189
-0.0302694
-0.0239689
-0.018078
-0.0121691
-0.00631379
-0.000577629
0.00501298
0.0104548
0.01576
0.0209543
0.026063
0.0311026
0.0360801
0.0409963
0.0417359
0.0383292
0.0350275
0.0321681
0.0296458
0.0273858
0.0253513
0.0235213
0.0218802
0.0204149
0.0191142
0.0179684
0.0169692
0.0161095
0.0153832
0.0147854
0.014312
0.0139597
0.0137262
0.0136098
0.0138625
0.0139831
0.0142249
0.0145899
0.0150804
0.0156998
0.0164526
0.0173439
0.0183801
0.0195687
0.0209184
0.0224396
0.0241444
0.0260461
0.0281587
0.0304967
0.0330873
0.0360611
0.0401
0.0398747
0.0352859
0.030499
0.0255542
0.0204707
0.0152512
0.00988696
0.00436201
-0.00134182
-0.00724084
-0.0133452
-0.019637
-0.0259762
-0.0317147
-0.0382012
-0.0417816
-0.0434295
-0.0422815
-0.0420965
-0.0415937
-0.0413523
-0.0411324
-0.040792
-0.0405047
-0.0402567
-0.0399908
-0.0397007
-0.0394595
-0.0392951
-0.0391999
-0.0391577
-0.0391577
-0.0391999
-0.0392951
-0.0394596
-0.0397007
-0.0399907
-0.0402567
-0.0405047
-0.040792
-0.0411324
-0.0413522
-0.0415937
-0.0420965
-0.0422815
-0.0434295
-0.0417816
-0.0382012
-0.0317146
-0.0259761
-0.019637
-0.0133451
-0.00724082
-0.00134179
0.00436203
0.00988697
0.0152512
0.0204707
0.0255542
0.030499
0.0352859
0.0398747
0.0401
0.0360611
0.0330873
0.0304967
0.0281587
0.0260461
0.0241444
0.0224396
0.0209184
0.0195687
0.0183801
0.0173439
0.0164526
0.0156998
0.0150804
0.0145899
0.014225
0.0139831
0.0138626
0.0140663
0.0141906
0.0144403
0.014817
0.0153235
0.0159632
0.0167407
0.0176614
0.0187318
0.0199597
0.0213542
0.0229263
0.024689
0.0266571
0.028843
0.0312419
0.0337818
0.0362011
0.0380844
0.0343248
0.0299406
0.0252205
0.020266
0.0151123
0.00976645
0.00422307
-0.00152918
-0.00750541
-0.0137303
-0.0202491
-0.0271469
-0.0345939
-0.038858
-0.040975
-0.0401295
-0.0401016
-0.0396151
-0.0392626
-0.0388899
-0.0385941
-0.0383256
-0.0380413
-0.0377757
-0.0375309
-0.0372932
-0.0370649
-0.0368713
-0.0367282
-0.0366375
-0.0365942
-0.0365942
-0.0366375
-0.0367282
-0.0368713
-0.0370649
-0.0372932
-0.0375309
-0.0377757
-0.0380412
-0.0383256
-0.0385941
-0.0388898
-0.0392625
-0.0396151
-0.0401016
-0.0401294
-0.0409749
-0.038858
-0.0345939
-0.0271469
-0.0202491
-0.0137303
-0.0075054
-0.00152916
0.00422308
0.00976647
0.0151123
0.0202661
0.0252205
0.0299406
0.0343248
0.0380844
0.0362011
0.0337818
0.0312419
0.028843
0.0266571
0.024689
0.0229263
0.0213542
0.0199597
0.0187318
0.0176614
0.0167407
0.0159632
0.0153235
0.0148171
0.0144403
0.0141907
0.0140663
0.014218
0.014346
0.0146028
0.0149904
0.0155116
0.01617
0.0169703
0.0179181
0.01902
0.0202836
0.0217183
0.0233353
0.0251493
0.0271799
0.0294536
0.0319964
0.0347581
0.0370491
0.0336518
0.029562
0.0250734
0.0202966
0.0152743
0.0100189
0.00452729
-0.00120986
-0.00720117
-0.0134531
-0.0199877
-0.0268662
-0.0342316
-0.0383131
-0.0400871
-0.0386601
-0.0378457
-0.0374188
-0.0369996
-0.0366327
-0.0362918
-0.0359908
-0.0357157
-0.035452
-0.0352052
-0.0349766
-0.0347641
-0.0345712
-0.0344085
-0.0342847
-0.0342029
-0.0341626
-0.0341626
-0.0342029
-0.0342847
-0.0344085
-0.0345712
-0.0347641
-0.0349766
-0.0352052
-0.035452
-0.0357157
-0.0359908
-0.0362918
-0.0366327
-0.0369996
-0.0374188
-0.0378456
-0.0386601
-0.0400871
-0.0383131
-0.0342316
-0.0268662
-0.0199877
-0.0134531
-0.00720118
-0.00120985
0.0045273
0.0100189
0.0152743
0.0202966
0.0250734
0.029562
0.0336517
0.0370491
0.0347581
0.0319964
0.0294536
0.0271799
0.0251493
0.0233353
0.0217183
0.0202836
0.01902
0.0179181
0.0169703
0.01617
0.0155116
0.0149904
0.0146028
0.014346
0.014218
0.0143149
0.0144461
0.0147094
0.0151069
0.0156415
0.016317
0.0171383
0.0181109
0.0192415
0.0205374
0.0220073
0.0236619
0.0255156
0.0275917
0.0299372
0.0326852
0.0363704
0.0355209
0.0300709
0.0253387
0.020614
0.0157155
0.0105897
0.00521097
-0.000442723
-0.00639188
-0.0126439
-0.0191784
-0.025992
-0.0331192
-0.0365169
-0.0362761
-0.0364619
-0.035912
-0.0353505
-0.0349034
-0.0345056
-0.0341495
-0.0338254
-0.0335322
-0.033264
-0.0330148
-0.0327845
-0.0325734
-0.032382
-0.0322131
-0.0320722
-0.031964
-0.0318914
-0.0318551
-0.0318551
-0.0318914
-0.031964
-0.0320722
-0.0322131
-0.032382
-0.0325734
-0.0327845
-0.0330148
-0.033264
-0.0335322
-0.0338254
-0.0341495
-0.0345056
-0.0349033
-0.0353505
-0.035912
-0.0364619
-0.0362761
-0.0365169
-0.0331192
-0.025992
-0.0191784
-0.0126439
-0.00639187
-0.000442718
0.00521097
0.0105897
0.0157155
0.020614
0.0253387
0.0300709
0.035521
0.0363704
0.0326852
0.0299372
0.0275917
0.0255156
0.0236619
0.0220073
0.0205374
0.0192415
0.0181109
0.0171383
0.016317
0.0156415
0.0151069
0.0147095
0.0144461
0.0143149
0.0143541
0.0144882
0.0147572
0.0151635
0.01571
0.016401
0.0172413
0.0182367
0.0193937
0.0207191
0.0222203
0.0239054
0.025784
0.0278675
0.030162
0.032593
0.0344494
0.0305214
0.025915
0.0212288
0.0164272
0.0114377
0.00620992
0.000704911
-0.00511685
-0.0112985
-0.0178605
-0.0247116
-0.0318014
-0.0350134
-0.0343684
-0.0339801
-0.0337417
-0.0333427
-0.0329067
-0.0325025
-0.0321329
-0.0317961