/*--------------------------------*- C++ -*----------------------------------*\
  =========                 |
  \\      /  F ield         | OpenFOAM: The Open Source CFD Toolbox
   \\    /   O peration     | Website:  https://openfoam.org
    \\  /    A nd           | Version:  7
     \\/     M anipulation  |
\*---------------------------------------------------------------------------*/
FoamFile
{
    version     2.0;
    format      ascii;
    class       volScalarField;
    location    "0.031";
    object      gradTx;
}
// * * * * * * * * * * * * * * * * * * * * * * * * * * * * * * * * * * * * * //

dimensions      [0 -1 0 1 0 0 0];

internalField   nonuniform List<scalar> 
10000
(
0.00263652
0.00790024
0.0131362
0.018326
0.023451
0.0284932
0.0334346
0.0382572
0.0429437
0.0474769
0.05184
0.0560166
0.0599909
0.0637475
0.0672718
0.0705496
0.0735678
0.0763138
0.0787759
0.0809433
0.0828064
0.0843564
0.0855855
0.0864873
0.0870562
0.087288
0.0871793
0.0867283
0.085934
0.0847966
0.0833174
0.0814992
0.0793457
0.0768626
0.0740567
0.0709368
0.0675134
0.0637991
0.0598078
0.0555552
0.0510578
0.0463335
0.0414007
0.0362791
0.0309897
0.0255555
0.0200015
0.0143538
0.00863911
0.00288437
-0.00288369
-0.00863843
-0.0143531
-0.0200009
-0.0255549
-0.030989
-0.0362785
-0.0414001
-0.0463329
-0.0510572
-0.0555546
-0.0598073
-0.0637986
-0.0675129
-0.0709363
-0.0740562
-0.0768621
-0.0793453
-0.0814987
-0.083317
-0.0847962
-0.0859337
-0.086728
-0.087179
-0.0872877
-0.0870559
-0.086487
-0.0855853
-0.0843562
-0.0828062
-0.0809431
-0.0787757
-0.0763136
-0.0735677
-0.0705495
-0.0672716
-0.0637474
-0.0599908
-0.0560166
-0.05184
-0.047477
-0.0429438
-0.0382573
-0.0334346
-0.0284933
-0.023451
-0.018326
-0.0131363
-0.00790034
-0.00263655
0.00264142
0.00791481
0.0131604
0.0183597
0.0234943
0.028546
0.0334967
0.0383286
0.0430242
0.0475662
0.051938
0.056123
0.0601055
0.06387
0.0674017
0.0706868
0.0737117
0.076464
0.0789319
0.0811047
0.0829725
0.0845267
0.0857595
0.0866643
0.0872357
0.0874694
0.0873622
0.0869121
0.0861182
0.0849807
0.0835009
0.0816813
0.0795258
0.0770396
0.0742296
0.0711044
0.0676747
0.0639529
0.0599534
0.0556918
0.0511852
0.0464513
0.0415083
0.0363754
0.0310733
0.0256249
0.0200557
0.0143923
0.00866206
0.00289199
-0.0028913
-0.00866138
-0.0143916
-0.0200551
-0.0256243
-0.0310727
-0.0363748
-0.0415077
-0.0464507
-0.0511846
-0.0556912
-0.0599528
-0.0639524
-0.0676742
-0.071104
-0.0742291
-0.0770392
-0.0795254
-0.0816809
-0.0835005
-0.0849803
-0.0861179
-0.0869118
-0.0873619
-0.0874691
-0.0872354
-0.086664
-0.0857592
-0.0845265
-0.0829723
-0.0811045
-0.0789317
-0.0764638
-0.0737115
-0.0706866
-0.0674016
-0.0638699
-0.0601054
-0.056123
-0.051938
-0.0475663
-0.0430242
-0.0383286
-0.0334968
-0.0285461
-0.0234944
-0.0183598
-0.0131605
-0.0079149
-0.00264142
0.00265111
0.00794389
0.0132087
0.0184273
0.0235809
0.0286515
0.0336209
0.0384712
0.0431849
0.0477447
0.0521338
0.0563357
0.0603345
0.0641148
0.0676616
0.0709609
0.0739994
0.0767642
0.0792438
0.0814272
0.0833046
0.0848671
0.0861071
0.087018
0.0875944
0.087832
0.0877276
0.0872794
0.0864863
0.0853486
0.0838676
0.0820455
0.079886
0.0773939
0.0745758
0.0714402
0.0679976
0.0642607
0.0602443
0.0559648
0.0514397
0.0466869
0.0417241
0.0365691
0.0312415
0.0257644
0.0201641
0.014469
0.00870754
0.00290702
-0.00290635
-0.00870686
-0.0144684
-0.0201635
-0.0257638
-0.0312409
-0.0365685
-0.0417235
-0.0466863
-0.0514391
-0.0559642
-0.0602437
-0.0642602
-0.0679971
-0.0714397
-0.0745753
-0.0773934
-0.0798856
-0.0820451
-0.0838672
-0.0853483
-0.0864859
-0.087279
-0.0877273
-0.0878317
-0.0875942
-0.0870178
-0.0861069
-0.0848669
-0.0833044
-0.081427
-0.0792436
-0.0767641
-0.0739992
-0.0709608
-0.0676615
-0.0641147
-0.0603345
-0.0563357
-0.0521338
-0.0477447
-0.043185
-0.0384713
-0.0336209
-0.0286516
-0.023581
-0.0184273
-0.0132088
-0.00794387
-0.00265109
0.00266561
0.00798736
0.0132811
0.0185284
0.0237106
0.0288095
0.0338069
0.0386848
0.0434257
0.0480121
0.0524272
0.0566544
0.0606777
0.0644815
0.068051
0.0713718
0.0744305
0.0772143
0.0797113
0.0819106
0.0838022
0.0853773
0.0866282
0.0875482
0.0881319
0.0883751
0.0882749
0.0878293
0.0870376
0.0858998
0.0844171
0.0825916
0.0804264
0.0779258
0.0750959
0.0719447
0.0684826
0.0647227
0.0606803
0.0563733
0.0518203
0.0470401
0.0420491
0.0368625
0.031497
0.0259755
0.020327
0.0145831
0.00877458
0.00292908
-0.00292842
-0.00877392
-0.0145825
-0.0203263
-0.0259749
-0.0314964
-0.0368619
-0.0420485
-0.0470395
-0.0518197
-0.0563727
-0.0606798
-0.0647221
-0.0684821
-0.0719442
-0.0750954
-0.0779254
-0.080426
-0.0825912
-0.0844167
-0.0858994
-0.0870372
-0.087829
-0.0882746
-0.0883748
-0.0881316
-0.0875479
-0.086628
-0.0853772
-0.083802
-0.0819104
-0.0797111
-0.0772141
-0.0744303
-0.0713717
-0.0680509
-0.0644814
-0.0606776
-0.0566544
-0.0524272
-0.0480121
-0.0434257
-0.0386849
-0.0338069
-0.0288096
-0.0237107
-0.0185285
-0.0132812
-0.00798733
-0.00266557
0.00268487
0.0080452
0.0133774
0.0186629
0.0238832
0.0290197
0.0340543
0.038969
0.043746
0.048368
0.0528177
0.0570786
0.0611345
0.0649699
0.0685695
0.071919
0.0750047
0.0778137
0.080334
0.0825545
0.0844651
0.0860569
0.0873221
0.088254
0.0888473
0.0890979
0.089003
0.0885609
0.0877708
0.0866331
0.0851487
0.0833192
0.0811473
0.0786362
0.0757912
0.0726194
0.069131
0.0653393
0.061261
0.0569155
0.0523248
0.0475097
0.0424853
0.0372603
0.0318449
0.0262611
0.0205439
0.0147322
0.00886078
0.00295717
-0.0029565
-0.00886012
-0.0147316
-0.0205433
-0.0262604
-0.0318443
-0.0372597
-0.0424847
-0.0475092
-0.0523242
-0.0569149
-0.0612604
-0.0653388
-0.0691305
-0.0726189
-0.0757907
-0.0786358
-0.0811469
-0.0833188
-0.0851483
-0.0866327
-0.0877705
-0.0885606
-0.0890027
-0.0890976
-0.088847
-0.0882537
-0.0873219
-0.0860567
-0.0844649
-0.0825543
-0.0803338
-0.0778135
-0.0750045
-0.0719188
-0.0685694
-0.0649698
-0.0611345
-0.0570786
-0.0528177
-0.048368
-0.0437461
-0.0389691
-0.0340544
-0.0290198
-0.0238832
-0.018663
-0.0133775
-0.00804518
-0.00268485
0.00270892
0.00811729
0.0134974
0.0188306
0.0240983
0.0292818
0.0343629
0.0393234
0.0441455
0.0488117
0.0533047
0.0576077
0.0617045
0.0655791
0.0692164
0.0726018
0.0757213
0.0785619
0.0811114
0.0833584
0.0852927
0.0869053
0.0881882
0.0891347
0.0897397
0.0899992
0.0899105
0.0894724
0.0886843
0.0875468
0.0860608
0.0842277
0.0820488
0.0795263
0.0766637
0.0734667
0.0699448
0.0661119
0.0619856
0.057588
0.0529476
0.0480922
0.0430353
0.0377723
0.0322958
0.0266259
0.0208129
0.0149109
0.00896087
0.00298917
-0.00298852
-0.00896021
-0.0149102
-0.0208123
-0.0266253
-0.0322952
-0.0377717
-0.0430347
-0.0480916
-0.052947
-0.0575874
-0.061985
-0.0661114
-0.0699443
-0.0734662
-0.0766632
-0.0795259
-0.0820484
-0.0842273
-0.0860604
-0.0875464
-0.0886839
-0.089472
-0.0899102
-0.0899989
-0.0897395
-0.0891345
-0.0881879
-0.0869051
-0.0852925
-0.0833582
-0.0811112
-0.0785618
-0.0757212
-0.0726016
-0.0692163
-0.065579
-0.0617044
-0.0576077
-0.0533047
-0.0488117
-0.0441456
-0.0393235
-0.034363
-0.0292819
-0.0240983
-0.0188307
-0.0134974
-0.00811729
-0.00270891
0.00273765
0.00820346
0.0136409
0.0190312
0.0243555
0.0295952
0.0347319
0.0397473
0.0446234
0.0493425
0.0538874
0.0582409
0.0623866
0.0663084
0.069991
0.0734195
0.0765797
0.0794583
0.0820427
0.0843216
0.0862844
0.0879217
0.0892257
0.0901894
0.0908079
0.0910773
0.0909955
0.0905614
0.0897754
0.0886383
0.0871515
0.0853157
0.0831312
0.080598
0.0777167
0.0744905
0.0709279
0.0670433
0.0628545
0.0583849
0.0536761
0.0487764
0.043702
0.0384188
0.0328722
0.0270779
0.0211274
0.015106
0.00906381
0.00302093
-0.00302029
-0.00906316
-0.0151053
-0.0211268
-0.0270773
-0.0328716
-0.0384182
-0.0437014
-0.0487758
-0.0536755
-0.0583843
-0.062854
-0.0670428
-0.0709274
-0.0744901
-0.0777162
-0.0805975
-0.0831308
-0.0853153
-0.0871511
-0.088638
-0.0897751
-0.0905611
-0.0909952
-0.0910771
-0.0908076
-0.0901892
-0.0892254
-0.0879215
-0.0862842
-0.0843214
-0.0820426
-0.0794581
-0.0765795
-0.0734193
-0.0699909
-0.0663084
-0.0623865
-0.0582409
-0.0538873
-0.0493426
-0.0446234
-0.0397473
-0.0347319
-0.0295953
-0.0243555
-0.0190312
-0.0136409
-0.00820347
-0.00273764
0.00277105
0.00830359
0.0138076
0.0192641
0.0246543
0.0299593
0.0351606
0.0402399
0.0451788
0.0499597
0.0545648
0.0589772
0.0631799
0.0671569
0.0708923
0.0743711
0.0775789
0.0805019
0.0831274
0.0854435
0.0874394
0.0891056
0.0904337
0.0914171
0.0920506
0.0923306
0.0922555
0.0918251
0.0910406
0.0899039
0.0884171
0.0865809
0.0843942
0.0818537
0.0789553
0.0756976
0.0720863
0.0681393
0.0638731
0.0592984
0.0544824
0.049532
0.0444844
0.0392466
0.0336258
0.0276278
0.0214675
0.0152894
0.00914804
0.00304461
-0.00304396
-0.00914741
-0.0152887
-0.0214668
-0.0276272
-0.0336252
-0.039246
-0.0444838
-0.0495314
-0.0544818
-0.0592978
-0.0638725
-0.0681388
-0.0720858
-0.0756971
-0.0789549
-0.0818533
-0.0843938
-0.0865805
-0.0884167
-0.0899035
-0.0910402
-0.0918248
-0.0922553
-0.0923304
-0.0920503
-0.0914169
-0.0904335
-0.0891054
-0.0874393
-0.0854433
-0.0831272
-0.0805017
-0.0775787
-0.074371
-0.0708922
-0.0671568
-0.0631799
-0.0589771
-0.0545648
-0.0499597
-0.0451788
-0.0402399
-0.0351607
-0.0299594
-0.0246543
-0.0192642
-0.0138076
-0.00830361
-0.00277103
0.002809
0.00841742
0.0139971
0.019529
0.0249941
0.0303734
0.0356483
0.0408002
0.0458107
0.0506619
0.0553359
0.0598154
0.0640833
0.0681232
0.0719191
0.0754555
0.0787178
0.0816918
0.0843644
0.0867233
0.0887572
0.0904562
0.0918117
0.0928167
0.0934663
0.0937571
0.0936879
0.0932595
0.0924747
0.0913376
0.0898517
0.0880189
0.0858366
0.0832971
0.080388
0.0770986
0.0734275
0.0694095
0.0650635
0.0603258
0.0553057
0.0502775
0.0453598
0.0403711
0.0346823
0.028279
0.0217779
0.0154025
0.00917437
0.00304677
-0.00304614
-0.00917374
-0.0154019
-0.0217773
-0.0282784
-0.0346817
-0.0403705
-0.0453592
-0.0502769
-0.0553051
-0.0603253
-0.0650629
-0.069409
-0.073427
-0.0770981
-0.0803875
-0.0832967
-0.0858362
-0.0880185
-0.0898513
-0.0913372
-0.0924744
-0.0932592
-0.0936876
-0.0937568
-0.093466
-0.0928165
-0.0918114
-0.090456
-0.088757
-0.0867231
-0.0843642
-0.0816916
-0.0787176
-0.0754554
-0.071919
-0.0681231
-0.0640832
-0.0598153
-0.0553358
-0.0506619
-0.0458108
-0.0408002
-0.0356484
-0.0303735
-0.0249941
-0.019529
-0.0139971
-0.00841744
-0.00280902
0.00285146
0.00854473
0.0142091
0.0198253
0.0253741
0.0308367
0.0361939
0.0414272
0.0465179
0.0514479
0.0561991
0.060754
0.0650952
0.0692059
0.0730699
0.0766714
0.0799952
0.0830269
0.0857528
0.0881601
0.090237
0.0919729
0.0933589
0.0943876
0.0950539
0.0953547
0.0952895
0.09486
0.0940713
0.0929307
0.091446
0.0896215
0.0874544
0.0849325
0.0820284
0.0787148
0.0749559
0.0708561
0.0665025
0.0615027
0.0560149
0.0508007
0.0462044
0.042104
0.0363739
0.0289636
0.0219136
0.0153338
0.00907977
0.00300745
-0.00300683
-0.00907916
-0.0153332
-0.021913
-0.0289629
-0.0363733
-0.0421034
-0.0462039
-0.0508001
-0.0560144
-0.0615021
-0.0665019
-0.0708556
-0.0749554
-0.0787143
-0.0820279
-0.084932
-0.0874539
-0.0896211
-0.0914456
-0.0929304
-0.0940709
-0.0948597
-0.0952892
-0.0953545
-0.0950537
-0.0943874
-0.0933586
-0.0919727
-0.0902368
-0.0881599
-0.0857526
-0.0830267
-0.079995
-0.0766713
-0.0730698
-0.0692058
-0.0650951
-0.0607539
-0.0561991
-0.0514479
-0.046518
-0.0414272
-0.036194
-0.0308367
-0.0253742
-0.0198253
-0.0142091
-0.00854476
-0.00285146
0.00289833
0.00868522
0.014443
0.0201522
0.0257937
0.031348
0.0367963
0.0421195
0.047299
0.0523163
0.057153
0.0617914
0.0662139
0.0704033
0.0743431
0.078017
0.0814095
0.0845058
0.0872914
0.0897531
0.0918782
0.0936555
0.0950751
0.0961293
0.0968126
0.0971222
0.0970576
0.0966215
0.0958216
0.0946711
0.0931845
0.0913736
0.0892369
0.0867641
0.0838971
0.0806011
0.0766577
0.0723971
0.0684371
0.0630282
0.0563237
0.0505903
0.0464467
0.0453668
0.0396586
0.0292196
0.0215286
0.0149045
0.00878297
0.00290337
-0.00290276
-0.00878237
-0.0149039
-0.021528
-0.029219
-0.039658
-0.0453662
-0.0464461
-0.0505898
-0.0563231
-0.0630276
-0.0684365
-0.0723966
-0.0766572
-0.0806006
-0.0838966
-0.0867637
-0.0892364
-0.0913732
-0.0931841
-0.0946707
-0.0958213
-0.0966212
-0.0970573
-0.097122
-0.0968124
-0.0961291
-0.0950749
-0.0936553
-0.091878
-0.0897529
-0.0872912
-0.0845056
-0.0814094
-0.0780168
-0.0743429
-0.0704032
-0.0662138
-0.0617913
-0.057153
-0.0523162
-0.047299
-0.0421195
-0.0367963
-0.0313481
-0.0257937
-0.0201523
-0.014443
-0.00868525
-0.00289832
0.00294947
0.00883857
0.0146983
0.0205091
0.0262516
0.0319064
0.0374541
0.0428757
0.0481523
0.0532651
0.0581956
0.0629256
0.0674374
0.0717133
0.0757365
0.0794904
0.0829589
0.0861267
0.0889789
0.0915013
0.0936805
0.0955039
0.0969606
0.0980421
0.0987425
0.099059
0.0989909
0.09854
0.0977157
0.0965414
0.0950427
0.0932495
0.0911561
0.0887945
0.0860041
0.0829502
0.0784999
0.0734699
0.0716602
0.0657016
0.0555309
0.0486734
0.0435155
0.0393242
0.0337533
0.0266573
0.0200267
0.0139387
0.00822441
0.00271935
-0.00271875
-0.00822382
-0.0139381
-0.0200261
-0.0266567
-0.0337527
-0.0393236
-0.0435149
-0.0486729
-0.0555303
-0.065701
-0.0716596
-0.0734693
-0.0784994
-0.0829497
-0.0860036
-0.088794
-0.0911556
-0.0932491
-0.0950423
-0.0965411
-0.0977154
-0.0985397
-0.0989907
-0.0990587
-0.0987422
-0.0980419
-0.0969604
-0.0955037
-0.0936802
-0.0915011
-0.0889787
-0.0861266
-0.0829588
-0.0794903
-0.0757364
-0.0717132
-0.0674373
-0.0629255
-0.0581955
-0.053265
-0.0481523
-0.0428757
-0.0374541
-0.0319064
-0.0262517
-0.0205092
-0.0146983
-0.00883859
-0.00294945
0.00300476
0.00900436
0.0149744
0.0208951
0.026747
0.0325103
0.0381658
0.043694
0.0490758
0.0542923
0.0593247
0.0641544
0.0687633
0.0731336
0.0772479
0.0810892
0.0846411
0.0878878
0.0908136
0.0934037
0.0956434
0.0975186
0.0990165
0.100127
0.100844
0.101166
0.101091
0.100615
0.0997432
0.0985203
0.0969811
0.0952133
0.0931338
0.0910474
0.0881727
0.0864988
0.0807352
0.0711473
0.0650368
0.0586065
0.0512947
0.0449447
0.0395169
0.0345678
0.0292925
0.0235674
0.0179363
0.0125678
0.00743843
0.00246238
-0.00246177
-0.00743783
-0.0125672
-0.0179357
-0.0235668
-0.0292919
-0.0345672
-0.0395163
-0.0449441
-0.0512941
-0.058606
-0.0650362
-0.0711468
-0.0807347
-0.0864983
-0.0881722
-0.0910469
-0.0931333
-0.0952129
-0.0969807
-0.09852
-0.0997429
-0.100615
-0.101091
-0.101166
-0.100844
-0.100127
-0.0990163
-0.0975183
-0.0956431
-0.0934035
-0.0908134
-0.0878876
-0.084641
-0.081089
-0.0772477
-0.0731335
-0.0687632
-0.0641543
-0.0593246
-0.0542922
-0.0490758
-0.043694
-0.0381658
-0.0325103
-0.026747
-0.0208951
-0.0149744
-0.00900437
-0.00300474
0.00306406
0.00918222
0.0152705
0.0213092
0.0272784
0.0331584
0.0389296
0.0445724
0.0500675
0.0553956
0.0605378
0.065475
0.070189
0.0746613
0.0788743
0.0828106
0.0864533
0.0897862
0.0927933
0.0954588
0.0977666
0.0997007
0.101245
0.102387
0.103119
0.103444
0.103367
0.102859
0.101894
0.100589
0.098923
0.0972657
0.0948977
0.0938703
0.0889267
0.0801035
0.0727759
0.0651776
0.0585789
0.0522557
0.0459792
0.0401924
0.034951
0.0300598
0.0252154
0.0203312
0.0155442
0.0109306
0.00648325
0.00214826
-0.00214767
-0.00648265
-0.01093
-0.0155436
-0.0203305
-0.0252148
-0.0300592
-0.0349504
-0.0401918
-0.0459786
-0.0522551
-0.0585783
-0.0651771
-0.0727754
-0.080103
-0.0889262
-0.0938699
-0.0948973
-0.0972653
-0.0989226
-0.100589
-0.101894
-0.102859
-0.103366
-0.103444
-0.103119
-0.102387
-0.101245
-0.0997005
-0.0977664
-0.0954586
-0.0927931
-0.0897861
-0.0864532
-0.0828105
-0.0788742
-0.0746612
-0.0701888
-0.0654749
-0.0605377
-0.0553956
-0.0500675
-0.0445724
-0.0389296
-0.0331584
-0.0272784
-0.0213092
-0.0152705
-0.0091822
-0.00306405
0.0031272
0.00937163
0.0155859
0.0217502
0.0278445
0.0338489
0.0397436
0.0455088
0.0511249
0.0565724
0.0618321
0.0668846
0.0717113
0.0762933
0.0806125
0.0846512
0.0883921
0.0918187
0.0949149
0.0976642
0.10005
0.102052
0.103651
0.104826
0.105567
0.10589
0.105833
0.105321
0.104147
0.102781
0.10062
0.0997938
0.0950898
0.0865563
0.0795196
0.0720183
0.0649142
0.0580567
0.0517115
0.0457408
0.0400727
0.0348078
0.0299602
0.0254412
0.0211251
0.0169553
0.012947
0.00910506
0.00540273
0.00179077
-0.00179018
-0.00540213
-0.00910448
-0.0129463
-0.0169547
-0.0211245
-0.0254406
-0.0299596
-0.0348072
-0.0400722
-0.0457402
-0.0517109
-0.0580562
-0.0649137
-0.0720178
-0.0795191
-0.0865558
-0.0950894
-0.0997934
-0.10062
-0.102781
-0.104147
-0.10532
-0.105833
-0.10589
-0.105567
-0.104826
-0.103651
-0.102052
-0.10005
-0.097664
-0.0949147
-0.0918186
-0.0883919
-0.084651
-0.0806124
-0.0762932
-0.0717112
-0.0668845
-0.061832
-0.0565724
-0.0511248
-0.0455087
-0.0397436
-0.0338489
-0.0278445
-0.0217502
-0.0155859
-0.00937161
-0.00312721
0.00319404
0.00957207
0.0159198
0.022217
0.0284438
0.03458
0.0406055
0.0465005
0.0522451
0.0578196
0.0632044
0.0683798
0.0733267
0.0780259
0.0824588
0.086607
0.0904532
0.0939807
0.0971737
0.100016
0.102491
0.104577
0.106244
0.107458
0.108187
0.108466
0.108504
0.108191
0.106341
0.105517
0.100735
0.0921309
0.0850545
0.0775348
0.0703865
0.0633673
0.0566572
0.0502939
0.0443568
0.0388259
0.0336801
0.0289356
0.0245816
0.0205703
0.0168483
0.0133861
0.0101595
0.00712354
0.00422216
0.00139907
-0.00139848
-0.00422155
-0.00712295
-0.0101589
-0.0133855
-0.0168477
-0.0205697
-0.024581
-0.028935
-0.0336796
-0.0388253
-0.0443562
-0.0502934
-0.0566567
-0.0633668
-0.0703861
-0.0775343
-0.0850541
-0.0921305
-0.100735
-0.105516
-0.106341
-0.108191
-0.108504
-0.108466
-0.108187
-0.107458
-0.106244
-0.104576
-0.102491
-0.100016
-0.0971735
-0.0939806
-0.090453
-0.0866068
-0.0824586
-0.0780258
-0.0733266
-0.0683798
-0.0632043
-0.0578196
-0.0522451
-0.0465005
-0.0406055
-0.03458
-0.0284438
-0.0222171
-0.0159198
-0.00957203
-0.00319406
0.00326436
0.00978296
0.016271
0.0227082
0.0290745
0.0353494
0.0415129
0.0475448
0.0534252
0.0591339
0.0646511
0.0699568
0.0750315
0.0798553
0.0844089
0.0886737
0.0926317
0.0962664
0.0995629
0.102507
0.105085
0.107275
0.109042
0.110319
0.110997
0.111021
0.111262
0.112331
0.107245
0.098124
0.0906003
0.0827144
0.0752578
0.0679593
0.0609628
0.0542653
0.0479304
0.0419992
0.0365057
0.0314498
0.0268229
0.0226205
0.0188174
0.0153756
0.0122847
0.00956075
0.00716607
0.00499709
0.00295725
0.000979879
-0.000979276
-0.00295665
-0.0049965
-0.00716548
-0.00956016
-0.0122841
-0.0153751
-0.0188168
-0.0226199
-0.0268223
-0.0314493
-0.0365052
-0.0419986
-0.0479299
-0.0542648
-0.0609623
-0.0679588
-0.0752574
-0.082714
-0.0905999
-0.0981236
-0.107245
-0.112331
-0.111262
-0.111021
-0.110997
-0.110319
-0.109042
-0.107275
-0.105085
-0.102507
-0.0995627
-0.0962662
-0.0926315
-0.0886735
-0.0844088
-0.0798551
-0.0750314
-0.0699568
-0.064651
-0.0591338
-0.0534251
-0.0475448
-0.0415129
-0.0353494
-0.0290745
-0.0227083
-0.016271
-0.00978291
-0.00326437
0.00333792
0.0100036
0.0166386
0.0232224
0.0297346
0.0361549
0.042463
0.0486386
0.0546615
0.0605114
0.0661681
0.0716115
0.0768211
0.0817769
0.0864586
0.0908466
0.0949222
0.0986687
0.102073
0.105125
0.107817
0.11014
0.112066
0.113508
0.114189
0.113084
0.112911
0.108517
0.0980917
0.08889
0.0806071
0.0726722
0.065129
0.0579291
0.0511075
0.0446872
0.0387039
0.0331864
0.028151
0.0235914
0.0194986
0.0158731
0.0126668
0.00981192
0.00734137
0.00539734
0.00394111
0.00273775
0.00162783
0.000541741
-0.000541138
-0.00162722
-0.00273716
-0.00394052
-0.00539675
-0.0073408
-0.00981136
-0.0126662
-0.0158725
-0.0194981
-0.0235908
-0.0281505
-0.0331858
-0.0387033
-0.0446867
-0.0511071
-0.0579286
-0.0651285
-0.0726718
-0.0806067
-0.0888896
-0.0980914
-0.108517
-0.11291
-0.113083
-0.114188
-0.113508
-0.112065
-0.11014
-0.107817
-0.105125
-0.102073
-0.0986685
-0.0949219
-0.0908464
-0.0864585
-0.0817768
-0.076821
-0.0716114
-0.066168
-0.0605113
-0.0546614
-0.0486386
-0.042463
-0.0361549
-0.0297346
-0.0232223
-0.0166385
-0.0100036
-0.00333793
0.00341455
0.0102334
0.0170213
0.0237577
0.0304221
0.036994
0.0434529
0.0497784
0.0559502
0.0619478
0.0677509
0.0733389
0.078691
0.0837862
0.0886034
0.0931213
0.0973197
0.101181
0.104692
0.107849
0.110657
0.113132
0.115293
0.117175
0.118874
0.113925
0.104668
0.0966356
0.0874698
0.0785217
0.0700764
0.0620731
0.054514
0.0473988
0.0407489
0.034588
0.0289436
0.0238381
0.0192802
0.0152367
0.0116873
0.00869426
0.00615885
0.00386284
0.00187412
0.000750386
0.000467541
0.000388227
0.000276546
0.000101115
-0.000100522
-0.000275921
-0.000387655
-0.000466959
-0.000749804
-0.00187354
-0.00386228
-0.00615829
-0.00869371
-0.0116867
-0.0152362
-0.0192797
-0.0238376
-0.0289431
-0.0345875
-0.0407485
-0.0473984
-0.0545135
-0.0620727
-0.070076
-0.0785214
-0.0874695
-0.0966353
-0.104668
-0.113925
-0.118874
-0.117175
-0.115293
-0.113131
-0.110657
-0.107848
-0.104691
-0.10118
-0.0973195
-0.0931211
-0.0886033
-0.0837861
-0.0786908
-0.0733387
-0.0677508
-0.0619477
-0.0559501
-0.0497784
-0.0434529
-0.036994
-0.0304221
-0.0237577
-0.0170213
-0.0102334
-0.00341455
0.00349394
0.0104715
0.017418
0.0243126
0.0311347
0.0378637
0.0444791
0.0509603
0.0572869
0.0634384
0.0693943
0.0751337
0.0806355
0.0858781
0.0908389
0.0954945
0.0998213
0.103797
0.107408
0.110654
0.113554
0.11615
0.118504
0.12072
0.116074
0.104956
0.0949344
0.085646
0.0764182
0.0674674
0.0589465
0.0508969
0.0433448
0.0363139
0.0298311
0.0239191
0.0186068
0.0139179
0.00988184
0.00638455
0.00332373
0.00106781
-0.000574288
-0.00237596
-0.00443828
-0.00471831
-0.00319436
-0.00191823
-0.00100488
-0.000311274
0.000311867
0.00100549
0.00191883
0.00319494
0.00471888
0.00443884
0.00237652
0.000574849
-0.00106727
-0.00332317
-0.00638401
-0.00988129
-0.0139174
-0.0186063
-0.0239186
-0.0298306
-0.0363135
-0.0433444
-0.0508965
-0.0589461
-0.067467
-0.0764179
-0.0856457
-0.0949341
-0.104956
-0.116074
-0.12072
-0.118504
-0.116149
-0.113554
-0.110654
-0.107408
-0.103797
-0.0998211
-0.0954944
-0.0908388
-0.085878
-0.0806354
-0.0751335
-0.0693941
-0.0634383
-0.0572868
-0.0509602
-0.044479
-0.0378637
-0.0311347
-0.0243125
-0.0174179
-0.0104715
-0.00349396
0.00357587
0.0107172
0.0178272
0.024885
0.0318699
0.0387611
0.045538
0.0521801
0.0586667
0.0649776
0.0710922
0.0769895
0.0826484
0.0880467
0.0931608
0.0979644
0.102428
0.106522
0.110221
0.113524
0.116465
0.119106
0.121541
0.116983
0.10562
0.0946187
0.0842302
0.0743885
0.0649121
0.0558336
0.0472223
0.0391247
0.0315785
0.0246257
0.0183056
0.0126302
0.00764068
0.0033511
-3.93447e-05
-0.00288017
-0.00581447
-0.00713863
-0.00711269
-0.0083169
-0.0124926
-0.0119541
-0.00658159
-0.00384414
-0.00205646
-0.000649897
0.00065049
0.00205706
0.00384472
0.00658219
0.0119546
0.0124932
0.00831746
0.00711323
0.00713921
0.00581502
0.00288072
3.98741e-05
-0.00335058
-0.00764018
-0.0126297
-0.0183051
-0.0246253
-0.0315781
-0.0391243
-0.0472219
-0.0558332
-0.0649117
-0.0743882
-0.08423
-0.0946184
-0.105619
-0.116983
-0.121541
-0.119106
-0.116465
-0.113524
-0.110221
-0.106522
-0.102428
-0.0979642
-0.0931606
-0.0880466
-0.0826483
-0.0769894
-0.071092
-0.0649775
-0.0586667
-0.05218
-0.045538
-0.0387611
-0.0318699
-0.024885
-0.0178272
-0.0107172
-0.00357588
0.00366004
0.0109696
0.0182477
0.0254732
0.0326252
0.039683
0.0466258
0.0534331
0.0600844
0.0665594
0.0728377
0.0788988
0.0847217
0.0902845
0.0955633
0.10053
0.105148
0.10937
0.113146
0.116462
0.119367
0.121952
0.117421
0.105917
0.0945262
0.0834301
0.0727748
0.0625931
0.0528656
0.0436187
0.0348973
0.0267387
0.0191789
0.0122856
0.00613427
0.000669961
-0.00399712
-0.00807572
-0.0104632
-0.0119986
-0.0165036
-0.0166355
-0.0123655
-0.0112306
-0.0113739
-0.0101424
-0.00729635
-0.00479671
-0.00271375
-0.000878045
0.000878627
0.00271434
0.00479731
0.00729695
0.0101429
0.0113744
0.0112312
0.0123661
0.0166361
0.0165041
0.0119992
0.0104637
0.00807625
0.00399764
-0.000669516
-0.00613382
-0.0122852
-0.0191785
-0.0267383
-0.0348969
-0.0436183
-0.0528653
-0.0625928
-0.0727744
-0.0834298
-0.0945259
-0.105917
-0.11742
-0.121952
-0.119367
-0.116462
-0.113145
-0.10937
-0.105148
-0.10053
-0.0955631
-0.0902843
-0.0847215
-0.0788987
-0.0728376
-0.0665593
-0.0600843
-0.053433
-0.0466257
-0.0396829
-0.0326252
-0.0254731
-0.0182476
-0.0109696
-0.00366005
0.00374618
0.0112279
0.0186779
0.0260749
0.0333979
0.0406259
0.0477383
0.0547145
0.0615341
0.0681769
0.0746231
0.0808526
0.0868453
0.0925806
0.0980367
0.103187
0.107992
0.112378
0.11623
0.119499
0.122268
0.11776
0.106132
0.0944578
0.0828964
0.0715962
0.0606761
0.0502071
0.0402329
0.0308019
0.0219601
0.0137295
0.00611135
-0.00077765
-0.00668747
-0.0120354
-0.0161589
-0.0211183
-0.0216595
-0.0180664
-0.0176517
-0.016624
-0.0144123
-0.0128033
-0.0115698
-0.00989309
-0.00762657
-0.00530696
-0.00310899
-0.00102238
0.00102296
0.00310957
0.00530754
0.00762713
0.00989364
0.0115703
0.0128039
0.0144129
0.0166245
0.0176523
0.018067
0.02166
0.0211189
0.0161593
0.0120358
0.00668791
0.000778074
-0.00611091
-0.0137291
-0.0219597
-0.0308015
-0.0402326
-0.0502067
-0.0606757
-0.0715959
-0.0828961
-0.0944575
-0.106132
-0.11776
-0.122267
-0.119499
-0.11623
-0.112378
-0.107992
-0.103187
-0.0980364
-0.0925804
-0.0868451
-0.0808524
-0.074623
-0.0681768
-0.061534
-0.0547144
-0.0477382
-0.0406259
-0.0333978
-0.0260748
-0.0186778
-0.0112279
-0.00374617
0.00383399
0.0114912
0.0191164
0.0266881
0.0341852
0.0415865
0.0488714
0.0560191
0.0630095
0.0698229
0.0764395
0.0828402
0.0890063
0.0949193
0.100562
0.10592
0.110969
0.115621
0.119584
0.12271
0.118284
0.106543
0.0946053
0.082641
0.0708
0.0592139
0.0479938
0.0372275
0.0269903
0.0173588
0.0084021
0.000123826
-0.00764649
-0.0147604
-0.0199944
-0.0258731
-0.0273815
-0.024642
-0.0230546
-0.0208576
-0.0193199
-0.0177104
-0.0157821
-0.0139353
-0.012151
-0.010185
-0.00797237
-0.00566939
-0.00337744
-0.00112034
0.00112092
0.003378
0.00566999
0.00797293
0.0101855
0.0121516
0.0139359
0.0157827
0.017711
0.0193204
0.0208582
0.0230551
0.0246425
0.027382
0.0258735
0.0199948
0.0147608
0.00764691
-0.000123413
-0.00840169
-0.0173585
-0.02699
-0.0372272
-0.0479935
-0.0592136
-0.0707997
-0.0826408
-0.094605
-0.106543
-0.118284
-0.12271
-0.119584
-0.11562
-0.110969
-0.10592
-0.100562
-0.0949191
-0.0890061
-0.0828401
-0.0764393
-0.0698227
-0.0630095
-0.056019
-0.0488713
-0.0415865
-0.0341851
-0.0266881
-0.0191163
-0.0114912
-0.00383399
0.00392317
0.0117587
0.0195617
0.0273108
0.0349844
0.0425614
0.0500207
0.0573418
0.0645046
0.0714895
0.0782776
0.0848504
0.09119
0.0972797
0.103108
0.10868
0.114042
0.119234
0.123442
0.119308
0.107465
0.0952348
0.0828561
0.0704931
0.05828
0.0463353
0.0347641
0.0236599
0.0131158
0.00324536
-0.00580199
-0.0139318
-0.0219787
-0.0305194
-0.0325378
-0.0301245
-0.0288941
-0.0268895
-0.0249447
-0.0228866
-0.0209654
-0.0190305
-0.016995
-0.0149387
-0.0128571
-0.010676
-0.00837162
-0.00599464
-0.0035954
-0.00119729
0.00119788
0.00359596
0.00599519
0.00837218
0.0106766
0.0128576
0.0149393
0.0169955
0.0190311
0.0209659
0.0228871
0.0249452
0.02689
0.0288946
0.030125
0.0325383
0.0305198
0.0219791
0.0139322
0.00580239
-0.00324499
-0.0131155
-0.0236596
-0.0347637
-0.046335
-0.0582797
-0.0704928
-0.0828558
-0.0952345
-0.107465
-0.119307
-0.123442
-0.119234
-0.114042
-0.108679
-0.103107
-0.0972795
-0.0911898
-0.0848502
-0.0782774
-0.0714893
-0.0645045
-0.0573417
-0.0500206
-0.0425613
-0.0349844
-0.0273108
-0.0195617
-0.0117587
-0.00392317
0.00401349
0.0120294
0.0200126
0.027941
0.035793
0.0435471
0.0511822
0.0586775
0.0660129
0.0731692
0.080128
0.0868718
0.0933828
0.0996421
0.10563
0.111351
0.11697
0.123497
0.12147
0.109456
0.0967358
0.0838203
0.0708791
0.0580246
0.0453616
0.0329925
0.0210143
0.00951505
-0.00141544
-0.0116431
-0.020847
-0.0279686
-0.0356899
-0.0388259
-0.0355351
-0.033048
-0.031044
-0.0289513
-0.0268323
-0.0246734
-0.022529
-0.0203654
-0.0181524
-0.015901
-0.0136059
-0.0112435
-0.0088069
-0.00631604
-0.00379656
-0.00126613
0.00126671
0.00379712
0.00631658
0.00880745
0.011244
0.0136064
0.0159016
0.018153
0.0203659
0.0225295
0.0246739
0.0268328
0.0289518
0.0310445
0.0330485
0.0355356
0.0388263
0.0356904
0.027969
0.0208474
0.0116435
0.00141582
-0.0095147
-0.021014
-0.0329922
-0.0453613
-0.0580243
-0.0708788
-0.08382
-0.0967356
-0.109455
-0.12147
-0.123497
-0.11697
-0.11135
-0.10563
-0.0996419
-0.0933826
-0.0868716
-0.0801279
-0.0731691
-0.0660127
-0.0586774
-0.0511821
-0.0435471
-0.035793
-0.0279409
-0.0200125
-0.0120294
-0.00401349
0.00410461
0.0123027
0.0204675
0.0285767
0.0366085
0.0445408
0.0523521
0.0600215
0.0675287
0.0748546
0.0819818
0.0888941
0.0955755
0.102004
0.10813
0.113811
0.11866
0.122138
0.115314
0.100001
0.085939
0.0722123
0.0586399
0.0452323
0.0320587
0.0192091
0.00677477
-0.00517195
-0.0165877
-0.0274605
-0.0378504
-0.0412596
-0.0399965
-0.0395613
-0.0375671
-0.0353394
-0.0331444
-0.0309117
-0.0286426
-0.0263391
-0.0240151
-0.0216628
-0.0192717
-0.0168404
-0.0143651
-0.0118385
-0.00926001
-0.00663994
-0.00399299
-0.00133219
0.00133274
0.00399354
0.00664046
0.00926056
0.011839
0.0143656
0.0168409
0.0192722
0.0216634
0.0240157
0.0263397
0.0286431
0.0309122
0.0331449
0.0353399
0.0375676
0.0395618
0.0399969
0.04126
0.0378508
0.0274609
0.0165881
0.00517228
-0.00677443
-0.0192088
-0.0320584
-0.045232
-0.0586396
-0.072212
-0.0859388
-0.100001
-0.115314
-0.122138
-0.11866
-0.113811
-0.108129
-0.102004
-0.0955752
-0.0888939
-0.0819816
-0.0748545
-0.0675285
-0.0600214
-0.0523521
-0.0445407
-0.0366084
-0.0285767
-0.0204674
-0.0123027
-0.00410463
0.00419634
0.0125777
0.0209252
0.0292164
0.0374286
0.0455396
0.0535272
0.0613698
0.0690468
0.0765389
0.0838295
0.0909055
0.0977584
0.104384
0.110768
0.11678
0.121377
0.116904
0.103494
0.0890177
0.0745762
0.0602661
0.0460981
0.0321126
0.0183821
0.00500321
-0.00791911
-0.0203175
-0.0321936
-0.0436157
-0.0478358
-0.0452158
-0.0432968
-0.041683
-0.0396707
-0.0374475
-0.0351428
-0.0327796
-0.0303688
-0.0279175
-0.025432
-0.0229118
-0.0203538
-0.0177566
-0.0151187
-0.0124386
-0.00971826
-0.00696469
-0.00418763
-0.00139714
0.00139767
0.00418816
0.00696523
0.0097188
0.0124391
0.0151193
0.0177572
0.0203544
0.0229123
0.0254326
0.027918
0.0303693
0.03278
0.0351433
0.037448
0.0396712
0.0416835
0.0432972
0.0452162
0.0478362
0.0436161
0.032194
0.0203179
0.00791943
-0.00500292
-0.0183818
-0.0321123
-0.0460978
-0.0602658
-0.0745759
-0.0890174
-0.103493
-0.116903
-0.121376
-0.116779
-0.110768
-0.104384
-0.0977581
-0.0909052
-0.0838293
-0.0765388
-0.0690467
-0.0613697
-0.0535271
-0.0455396
-0.0374286
-0.0292163
-0.0209252
-0.0125777
-0.00419635
0.00428841
0.0128537
0.0213847
0.0298583
0.0382515
0.0465414
0.0547049
0.0627196
0.0705636