/*--------------------------------*- C++ -*----------------------------------*\
  =========                 |
  \\      /  F ield         | OpenFOAM: The Open Source CFD Toolbox
   \\    /   O peration     | Website:  https://openfoam.org
    \\  /    A nd           | Version:  7
     \\/     M anipulation  |
\*---------------------------------------------------------------------------*/
FoamFile
{
    version     2.0;
    format      ascii;
    class       volScalarField;
    location    "0.031";
    object      gradTy;
}
// * * * * * * * * * * * * * * * * * * * * * * * * * * * * * * * * * * * * * //

dimensions      [0 -1 0 1 0 0 0];

internalField   nonuniform List<scalar> 
10000
(
0.00263653
0.00264141
0.00265111
0.00266559
0.00268487
0.00270891
0.00273764
0.00277104
0.00280899
0.00285146
0.00289832
0.00294946
0.00300476
0.00306407
0.00312722
0.00319404
0.00326435
0.00333795
0.00341454
0.00349396
0.00357589
0.00366006
0.00374619
0.003834
0.00392318
0.00401346
0.00410462
0.00419635
0.00428841
0.00438055
0.00447251
0.00456401
0.00465469
0.00474406
0.00483169
0.00491699
0.00499939
0.00507831
0.00515323
0.00522384
0.00528988
0.00535124
0.00540767
0.00545884
0.00550402
0.00554244
0.00557342
0.00559659
0.00561192
0.00561952
0.00561954
0.00561191
0.0055966
0.00557343
0.00554245
0.00550403
0.00545883
0.00540768
0.00535123
0.00528987
0.00522384
0.00515324
0.0050783
0.00499939
0.00491698
0.0048317
0.00474407
0.00465468
0.004564
0.00447252
0.00438056
0.00428839
0.00419634
0.00410462
0.00401346
0.00392317
0.00383398
0.00374618
0.00366006
0.00357589
0.00349396
0.00341456
0.00333793
0.00326435
0.00319402
0.0031272
0.00306406
0.00300475
0.00294945
0.00289833
0.00285147
0.002809
0.00277105
0.00273765
0.00270891
0.00268486
0.00266557
0.00265109
0.00264142
0.00263654
0.00790026
0.00791485
0.0079439
0.00798735
0.0080452
0.00811728
0.00820347
0.00830358
0.00841743
0.00854475
0.00868522
0.00883857
0.00900435
0.0091822
0.00937163
0.00957204
0.00978292
0.0100036
0.0102334
0.0104715
0.0107172
0.0109696
0.0112279
0.0114912
0.0117587
0.0120295
0.0123027
0.0125777
0.0128537
0.01313
0.0134058
0.0136802
0.0139522
0.0142204
0.0144835
0.0147395
0.0149869
0.0152237
0.0154485
0.0156602
0.0158581
0.0160421
0.0162115
0.0163654
0.0165015
0.0166173
0.0167104
0.0167799
0.0168257
0.0168483
0.0168483
0.0168257
0.0167799
0.0167104
0.0166173
0.0165015
0.0163654
0.0162115
0.016042
0.0158581
0.0156602
0.0154485
0.0152237
0.0149869
0.0147396
0.0144835
0.0142204
0.0139522
0.0136802
0.0134058
0.01313
0.0128537
0.0125777
0.0123027
0.0120294
0.0117587
0.0114912
0.0112279
0.0109696
0.0107172
0.0104715
0.0102334
0.0100036
0.0097829
0.00957202
0.00937159
0.00918219
0.00900433
0.00883855
0.00868521
0.00854474
0.00841742
0.00830357
0.00820346
0.00811724
0.00804516
0.00798731
0.00794385
0.00791487
0.00790032
0.0131362
0.0131604
0.0132088
0.0132811
0.0133774
0.0134974
0.0136409
0.0138076
0.0139971
0.0142091
0.014443
0.0146983
0.0149744
0.0152705
0.0155859
0.0159198
0.016271
0.0166386
0.0170213
0.017418
0.0178272
0.0182477
0.0186779
0.0191164
0.0195617
0.0200126
0.0204675
0.0209252
0.0213847
0.0218446
0.0223038
0.0227609
0.0232141
0.0236614
0.0241003
0.0245277
0.0249405
0.0253356
0.0257103
0.0260626
0.0263917
0.0266977
0.0269805
0.0272385
0.0274676
0.0276622
0.0278182
0.0279335
0.028009
0.0280461
0.0280461
0.028009
0.0279335
0.0278181
0.0276622
0.0274676
0.0272385
0.0269805
0.0266977
0.0263917
0.0260626
0.0257102
0.0253356
0.0249405
0.0245277
0.0241003
0.0236614
0.0232141
0.0227608
0.0223038
0.0218446
0.0213846
0.0209252
0.0204674
0.0200125
0.0195617
0.0191163
0.0186778
0.0182476
0.0178272
0.0174179
0.0170213
0.0166385
0.016271
0.0159197
0.0155859
0.0152705
0.0149743
0.0146983
0.0144429
0.014209
0.0139971
0.0138076
0.0136409
0.0134974
0.0133774
0.0132811
0.0132087
0.0131604
0.0131363
0.018326
0.0183597
0.0184273
0.0185284
0.018663
0.0188307
0.0190312
0.0192641
0.019529
0.0198253
0.0201522
0.0205091
0.0208951
0.0213092
0.0217502
0.022217
0.0227082
0.0232224
0.0237577
0.0243126
0.024885
0.0254732
0.0260749
0.0266881
0.0273108
0.027941
0.0285768
0.0292164
0.0298583
0.0305009
0.0311427
0.0317819
0.0324164
0.0330432
0.0336588
0.0342586
0.034838
0.035392
0.0359166
0.0364087
0.0368673
0.0372938
0.0376901
0.038055
0.0383813
0.0386584
0.038878
0.0390381
0.0391412
0.0391914
0.0391914
0.0391412
0.0390381
0.038878
0.0386584
0.0383813
0.038055
0.0376901
0.0372937
0.0368672
0.0364087
0.0359166
0.035392
0.034838
0.0342586
0.0336587
0.0330432
0.0324164
0.0317819
0.0311427
0.0305009
0.0298582
0.0292163
0.0285767
0.0279409
0.0273108
0.0266881
0.0260748
0.0254731
0.024885
0.0243125
0.0237577
0.0232223
0.0227082
0.022217
0.0217502
0.0213091
0.0208951
0.0205091
0.0201522
0.0198252
0.019529
0.0192641
0.0190311
0.0188306
0.0186629
0.0185284
0.0184273
0.0183597
0.0183259
0.023451
0.0234943
0.0235809
0.0237106
0.0238832
0.0240983
0.0243555
0.0246543
0.0249941
0.0253741
0.0257936
0.0262516
0.026747
0.0272784
0.0278445
0.0284438
0.0290745
0.0297346
0.0304221
0.0311347
0.0318699
0.0326252
0.0333979
0.0341852
0.0349844
0.035793
0.0366085
0.0374286
0.0382515
0.0390753
0.0398985
0.040719
0.0415345
0.0423415
0.0431351
0.0439093
0.0446571
0.0453715
0.0460463
0.0466767
0.047261
0.0478039
0.0483131
0.0487901
0.0492229
0.0495889
0.0498733
0.0500749
0.050201
0.0502611
0.0502611
0.050201
0.0500749
0.0498733
0.0495889
0.0492229
0.0487901
0.0483131
0.0478039
0.047261
0.0466767
0.0460463
0.0453715
0.044657
0.0439092
0.0431351
0.0423415
0.0415345
0.040719
0.0398985
0.0390753
0.0382515
0.0374286
0.0366084
0.035793
0.0349844
0.0341851
0.0333978
0.0326252
0.0318699
0.0311347
0.0304221
0.0297346
0.0290744
0.0284438
0.0278445
0.0272783
0.0267469
0.0262516
0.0257936
0.0253741
0.0249941
0.0246543
0.0243554
0.0240983
0.0238832
0.0237106
0.023581
0.0234944
0.023451
0.0284932
0.028546
0.0286515
0.0288095
0.0290197
0.0292818
0.0295952
0.0299593
0.0303734
0.0308367
0.031348
0.0319064
0.0325103
0.0331584
0.0338489
0.03458
0.0353494
0.036155
0.036994
0.0378637
0.0387611
0.039683
0.0406259
0.0415866
0.0425614
0.0435472
0.0445408
0.0455396
0.0465414
0.0475442
0.0485466
0.049547
0.0505431
0.051531
0.0525048
0.0534565
0.054376
0.0552534
0.05608
0.056847
0.0575494
0.0581983
0.058816
0.059415
0.0599745
0.0604423
0.0607914
0.0610258
0.0611651
0.0612288
0.0612288
0.0611651
0.0610258
0.0607914
0.0604423
0.0599745
0.059415
0.058816
0.0581983
0.0575494
0.056847
0.05608
0.0552534
0.054376
0.0534565
0.0525048
0.051531
0.0505431
0.049547
0.0485466
0.0475442
0.0465413
0.0455396
0.0445408
0.0435471
0.0425613
0.0415865
0.0406259
0.0396829
0.0387611
0.0378637
0.0369939
0.0361549
0.0353494
0.0345799
0.0338489
0.0331584
0.0325103
0.0319063
0.031348
0.0308366
0.0303734
0.0299593
0.0295952
0.0292818
0.0290197
0.0288095
0.0286515
0.028546
0.0284932
0.0334346
0.0334967
0.0336209
0.0338069
0.0340544
0.0343629
0.0347319
0.0351606
0.0356483
0.036194
0.0367963
0.0374541
0.0381658
0.0389296
0.0397436
0.0406055
0.0415129
0.042463
0.0434529
0.0444791
0.045538
0.0466258
0.0477383
0.0488714
0.0500207
0.0511822
0.0523521
0.0535272
0.0547049
0.0558835
0.057062
0.0582397
0.0594152
0.0605851
0.0617426
0.0628768
0.0639735
0.0650182
0.0660009
0.0669058
0.0677114
0.0684406
0.0691512
0.0698897
0.0706255
0.0712197
0.0716275
0.0718742
0.072006
0.0720614
0.0720614
0.072006
0.0718742
0.0716274
0.0712197
0.0706255
0.0698897
0.0691512
0.0684406
0.0677113
0.0669057
0.0660009
0.0650182
0.0639735
0.0628767
0.0617426
0.0605851
0.0594152
0.0582397
0.057062
0.0558835
0.0547049
0.0535272
0.0523521
0.0511822
0.0500207
0.0488713
0.0477383
0.0466257
0.0455379
0.044479
0.0434528
0.042463
0.0415129
0.0406055
0.0397435
0.0389295
0.0381657
0.0374541
0.0367963
0.0361939
0.0356483
0.0351606
0.0347319
0.0343629
0.0340544
0.0338069
0.0336209
0.0334967
0.0334346
0.0382572
0.0383286
0.0384712
0.0386848
0.038969
0.0393234
0.0397473
0.0402398
0.0408002
0.0414272
0.0421195
0.0428757
0.043694
0.0445724
0.0455088
0.0465005
0.0475448
0.0486386
0.0497784
0.0509603
0.05218
0.0534331
0.0547145
0.0560191
0.0573418
0.0586775
0.0600215
0.0613699
0.0627196
0.0640692
0.0654188
0.0667694
0.068122
0.0694748
0.0708211
0.0721462
0.0734292
0.0746457
0.0757955
0.0768547
0.0777364
0.0784843
0.0792375
0.0801421
0.0811898
0.0819522
0.0823909
0.0826027
0.0826874
0.0827133
0.0827133
0.0826874
0.0826027
0.0823909
0.0819521
0.0811898
0.0801421
0.0792375
0.0784843
0.0777364
0.0768546
0.0757954
0.0746457
0.0734292
0.0721461
0.0708211
0.0694748
0.068122
0.0667694
0.0654187
0.0640692
0.0627195
0.0613698
0.0600215
0.0586774
0.0573417
0.0560191
0.0547144
0.053433
0.05218
0.0509602
0.0497783
0.0486386
0.0475448
0.0465005
0.0455087
0.0445724
0.043694
0.0428757
0.0421195
0.0414272
0.0408002
0.0402399
0.0397473
0.0393234
0.0389691
0.0386848
0.0384712
0.0383286
0.0382573
0.0429438
0.0430242
0.0431849
0.0434257
0.043746
0.0441455
0.0446234
0.0451788
0.0458107
0.046518
0.047299
0.0481523
0.0490758
0.0500675
0.0511249
0.0522451
0.0534252
0.0546615
0.0559502
0.0572869
0.0586667
0.0600844
0.0615341
0.0630096
0.0645046
0.0660129
0.0675287
0.0690468
0.0705636
0.0720775
0.0735904
0.0751064
0.076631
0.0781666
0.0797098
0.0812396
0.082727
0.0841093
0.0854438
0.0867387
0.0876481
0.0882712
0.0889167
0.0899912
0.0917741
0.0927393
0.0931099
0.0931854
0.0931543
0.0931172
0.0931172
0.0931543
0.0931854
0.0931098
0.0927392
0.0917741
0.0899912
0.0889167
0.0882711
0.0876481
0.0867386
0.0854437
0.0841093
0.0827269
0.0812396
0.0797097
0.0781666
0.076631
0.0751064
0.0735904
0.0720775
0.0705635
0.0690468
0.0675286
0.0660128
0.0645045
0.0630095
0.061534
0.0600844
0.0586667
0.0572868
0.0559501
0.0546614
0.0534251
0.0522451
0.0511248
0.0500675
0.0490758
0.0481523
0.047299
0.046518
0.0458107
0.0451788
0.0446234
0.0441455
0.0437461
0.0434257
0.0431849
0.0430242
0.0429438
0.0474769
0.0475662
0.0477447
0.0480121
0.048368
0.0488117
0.0493425
0.0499597
0.0506619
0.0514479
0.0523163
0.0532651
0.0542923
0.0553956
0.0565724
0.0578196
0.0591339
0.0605114
0.0619478
0.0634384
0.0649776
0.0665594
0.0681769
0.0698229
0.0714895
0.0731692
0.0748546
0.0765389
0.0782166
0.0798858
0.0815502
0.0832185
0.0849049
0.0866188
0.0883719
0.0901279
0.0918744
0.0933582
0.094862
0.0967318
0.0975644
0.0977497
0.0978772
0.0988366
0.102873
0.103813
0.103814
0.103564
0.103316
0.103172
0.103172
0.103316
0.103564
0.103814
0.103813
0.102873
0.0988365
0.0978772
0.0977497
0.0975643
0.0967317
0.094862
0.0933581
0.0918744
0.0901279
0.0883719
0.0866188
0.0849049
0.0832185
0.0815501
0.0798858
0.0782166
0.0765389
0.0748546
0.0731692
0.0714894
0.0698228
0.0681769
0.0665594
0.0649776
0.0634383
0.0619478
0.0605113
0.0591338
0.0578196
0.0565724
0.0553956
0.0542923
0.053265
0.0523162
0.0514479
0.0506619
0.0499597
0.0493426
0.0488117
0.048368
0.0480121
0.0477448
0.0475663
0.047477
0.05184
0.051938
0.0521338
0.0524272
0.0528177
0.0533047
0.0538874
0.0545648
0.0553359
0.0561991
0.057153
0.0581956
0.0593246
0.0605378
0.0618321
0.0632044
0.0646511
0.0661681
0.0677509
0.0693942
0.0710921
0.0728377
0.0746231
0.0764395
0.0782776
0.080128
0.0819818
0.0838295
0.0856618
0.087474
0.0892725
0.0910707
0.0929005
0.0947724
0.0967625
0.0987481
0.100998
0.102292
0.103612
0.10745
0.10781
0.106966
0.105683
0.104277
0.102903
0.101656
0.100597
0.0997693
0.0992021
0.098914
0.0989139
0.099202
0.0997693
0.100597
0.101656
0.102903
0.104277
0.105683
0.106966
0.10781
0.10745
0.103612
0.102292
0.100998
0.098748
0.0967624
0.0947723
0.0929004
0.0910707
0.0892725
0.0874739
0.0856618
0.0838295
0.0819817
0.080128
0.0782775
0.0764394
0.074623
0.0728376
0.0710921
0.0693942
0.0677508
0.0661681
0.064651
0.0632043
0.061832
0.0605377
0.0593246
0.0581956
0.057153
0.0561992
0.0553359
0.0545649
0.0538874
0.0533047
0.0528177
0.0524272
0.0521339
0.051938
0.05184
0.0560166
0.056123
0.0563357
0.0566544
0.0570786
0.0576077
0.0582409
0.0589772
0.0598153
0.060754
0.0617914
0.0629256
0.0641544
0.0654751
0.0668847
0.0683798
0.0699568
0.0716114
0.0733389
0.0751337
0.0769895
0.0788988
0.0808526
0.0828402
0.0848504
0.0868718
0.0888941
0.0909054
0.0928878
0.0948271
0.096737
0.0986237
0.100577
0.102521
0.10486
0.106796
0.110758
0.110874
0.109508
0.107473
0.105086
0.102444
0.0994405
0.0955146
0.0886415
0.0851484
0.0829893
0.0815561
0.0806526
0.0802116
0.0802116
0.0806526
0.0815561
0.0829893
0.0851484
0.0886415
0.0955145
0.0994405
0.102444
0.105086
0.107473
0.109508
0.110874
0.110758
0.106796
0.10486
0.102521
0.100577
0.0986237
0.096737
0.094827
0.0928877
0.0909054
0.088894
0.0868717
0.0848503
0.0828402
0.0808525
0.0788988
0.0769895
0.0751336
0.0733388
0.0716114
0.0699568
0.0683798
0.0668846
0.065475
0.0641543
0.0629256
0.0617914
0.060754
0.0598154
0.0589772
0.0582409
0.0576077
0.0570786
0.0566544
0.0563358
0.0561231
0.0560166
0.0599909
0.0601054
0.0603345
0.0606777
0.0611346
0.0617044
0.0623866
0.0631799
0.0640833
0.0650952
0.0662139
0.0674374
0.0687633
0.070189
0.0717113
0.0733267
0.0750315
0.0768211
0.078691
0.0806355
0.0826484
0.0847217
0.0868452
0.0890062
0.09119
0.0933828
0.0955754
0.0977584
0.0998944
0.101937
0.103942
0.105817
0.107958
0.109559
0.113034
0.112482
0.110187
0.106758
0.101895
0.0936764
0.0884494
0.0841246
0.0799683
0.0755601
0.0707039
0.0670222
0.0643777
0.0625397
0.0613696
0.0607986
0.0607985
0.0613696
0.0625397
0.0643777
0.0670222
0.0707039
0.0755601
0.0799683
0.0841246
0.0884494
0.0936763
0.101895
0.106758
0.110187
0.112482
0.113034
0.109559
0.107958
0.105817
0.103942
0.101937
0.0998944
0.0977583
0.0955754
0.0933827
0.0911899
0.0890062
0.0868452
0.0847217
0.0826484
0.0806355
0.0786909
0.0768211
0.0750314
0.0733267
0.0717112
0.0701889
0.0687633
0.0674374
0.0662139
0.0650952
0.0640833
0.0631799
0.0623866
0.0617045
0.0611346
0.0606777
0.0603345
0.0601055
0.0599909
0.0637475
0.0638699
0.0641147
0.0644815
0.0649699
0.0655791
0.0663084
0.0671569
0.0681232
0.0692059
0.0704033
0.0717133
0.0731336
0.0746613
0.0762933
0.0780259
0.0798552
0.0817769
0.0837862
0.0858781
0.0880467
0.0902845
0.0925806
0.0949192
0.0972797
0.0996421
0.102004
0.104384
0.106709
0.108788
0.11097
0.112427
0.11555
0.114383
0.111059
0.10573
0.0965786
0.0899087
0.083488
0.0765834
0.0706223
0.0653615
0.0604854
0.0558048
0.0513588
0.0476374
0.0447466
0.042648
0.0412839
0.0406123
0.0406123
0.0412839
0.042648
0.0447466
0.0476374
0.0513588
0.0558047
0.0604854
0.0653615
0.0706223
0.0765834
0.083488
0.0899087
0.0965786
0.10573
0.111059
0.114383
0.11555
0.112427
0.11097
0.108788
0.106709
0.104384
0.102004
0.099642
0.0972797
0.0949192
0.0925806
0.0902845
0.0880467
0.0858781
0.0837862
0.0817769
0.0798552
0.0780259
0.0762933
0.0746613
0.0731336
0.0717133
0.0704033
0.0692059
0.0681232
0.0671569
0.0663085
0.0655791
0.0649699
0.0644816
0.0641148
0.06387
0.0637475
0.0672717
0.0674017
0.0676616
0.068051
0.0685694
0.0692164
0.069991
0.0708923
0.0719191
0.0730699
0.074343
0.0757365
0.0772479
0.0788743
0.0806125
0.0824587
0.0844089
0.0864586
0.0886034
0.0908389
0.0931608
0.0955632
0.0980366
0.100562
0.103108
0.10563
0.10813
0.110768
0.113462
0.115215
0.118389
0.117027
0.113254
0.107184
0.0969189
0.0886438
0.0801827
0.0725251
0.065299
0.058303
0.0518692
0.046004
0.0406124
0.0356345
0.0311229
0.0272675
0.0241779
0.0218827
0.0203708
0.0196216
0.0196216
0.0203708
0.0218827
0.0241778
0.0272675
0.0311229
0.0356345
0.0406124
0.0460039
0.0518691
0.058303
0.0652989
0.0725251
0.0801827
0.0886438
0.0969189
0.107184
0.113254
0.117027
0.118389
0.115215
0.113462
0.110768
0.10813
0.10563
0.103108
0.100562
0.0980366
0.0955632
0.0931608
0.0908389
0.0886034
0.0864586
0.0844089
0.0824587
0.0806125
0.0788743
0.0772479
0.0757365
0.0743431
0.0730699
0.0719191
0.0708923
0.069991
0.0692164
0.0685695
0.068051
0.0676616
0.0674018
0.0672718
0.0705496
0.0706868
0.0709609
0.0713718
0.0719189
0.0726017
0.0734194
0.0743711
0.0754555
0.0766714
0.078017
0.0794904
0.0810892
0.0828106
0.0846511
0.086607
0.0886737
0.0908466
0.0931213
0.0954945
0.0979643
0.10053
0.103187
0.10592
0.10868
0.111351
0.113811
0.116779
0.120821
0.119878
0.116164
0.109858
0.0990849
0.0900259
0.0804879
0.0714691
0.0627349
0.0544853
0.0466773
0.0392795
0.0323864
0.0260297
0.0201991
0.0148869
0.0101335
0.00604649
0.00273902
0.000265608
-0.00136896
-0.00217987
-0.00217986
-0.00136896
0.000265619
0.00273902
0.00604649
0.0101335
0.0148869
0.020199
0.0260297
0.0323864
0.0392795
0.0466773
0.0544853
0.0627349
0.0714691
0.0804879
0.0900258
0.0990849
0.109858
0.116164
0.119878
0.120821
0.116779
0.113811
0.111351
0.10868
0.10592
0.103187
0.10053
0.0979643
0.0954945
0.0931213
0.0908465
0.0886737
0.086607
0.0846512
0.0828106
0.0810892
0.0794904
0.078017
0.0766714
0.0754555
0.0743711
0.0734195
0.0726018
0.071919
0.0713719
0.070961
0.0706868
0.0705497
0.0735678
0.0737117
0.0739993
0.0744305
0.0750046
0.0757213
0.0765796
0.0775788
0.0787178
0.0799952
0.0814095
0.0829589
0.0846411
0.0864533
0.0883921
0.0904532
0.0926317
0.0949221
0.0973197
0.0998213
0.102428
0.105148
0.107992
0.110969
0.114042
0.11697
0.11866
0.121377
0.118986
0.113127
0.102359
0.0929993
0.0829003
0.0730738
0.0632947
0.0537948
0.0446146
0.0358414
0.027507
0.0196356
0.0122725
0.00545411
-0.000789996
-0.00646061
-0.0115483
-0.0159675
-0.0195371
-0.0221859
-0.0239229
-0.0247802
-0.0247802
-0.0239229
-0.0221859
-0.0195371
-0.0159675
-0.0115483
-0.00646062
-0.000789996
0.00545411
0.0122725
0.0196356
0.027507
0.0358414
0.0446145
0.0537947
0.0632946
0.0730737
0.0829003
0.0929993
0.102359
0.113127
0.118986
0.121377
0.11866
0.11697
0.114042
0.110969
0.107992
0.105148
0.102428
0.0998213
0.0973196
0.0949221
0.0926317
0.0904532
0.0883921
0.0864533
0.0846411
0.0829589
0.0814095
0.0799952
0.0787178
0.0775789
0.0765797
0.0757213
0.0750047
0.0744305
0.0739994
0.0737118
0.0735679
0.0763138
0.076464
0.0767642
0.0772142
0.0778136
0.0785619
0.0794582
0.0805019
0.0816918
0.0830269
0.0845057
0.0861267
0.0878878
0.0897862
0.0918187
0.0939807
0.0962664
0.0986687
0.101181
0.103797
0.106522
0.10937
0.112378
0.115621
0.119234
0.123497
0.122138
0.116904
0.106443
0.0971281
0.0868404
0.0766042
0.0661991
0.0558604
0.0456387
0.0356465
0.0259613
0.0166597
0.00780025
-0.000565807
-0.00841282
-0.0157014
-0.022339
-0.0283599
-0.0338518
-0.0387706
-0.0426622
-0.0454691
-0.0472711
-0.0481498
-0.0481498
-0.047271
-0.0454691
-0.0426622
-0.0387706
-0.0338519
-0.02836
-0.0223391
-0.0157014
-0.00841285
-0.000565839
0.00780022
0.0166596
0.0259613
0.0356464
0.0456386
0.0558603
0.0661991
0.0766042
0.0868404
0.097128
0.106443
0.116903
0.122138
0.123497
0.119234
0.115621
0.112378
0.10937
0.106522
0.103797
0.101181
0.0986687
0.0962664
0.0939807
0.0918188
0.0897862
0.0878878
0.0861267
0.0845058
0.0830269
0.0816919
0.0805019
0.0794583
0.078562
0.0778137
0.0772143
0.0767643
0.076464
0.0763138
0.0787758
0.0789318
0.0792437
0.0797112
0.080334
0.0811113
0.0820427
0.0831274
0.0843644
0.0857528
0.0872914
0.0889789
0.0908136
0.0927933
0.0949149
0.0971736
0.0995628
0.102073
0.104692
0.107408
0.110221
0.113145
0.11623
0.119584
0.123442
0.12147
0.115314
0.103494
0.092443
0.08182
0.0710204
0.0601594
0.049245
0.0383752
0.0276299
0.0170988
0.00686173
-0.00299833
-0.0124067
-0.0212675
-0.0296135
-0.0374424
-0.0444188
-0.0506835
-0.0566067
-0.0624632
-0.0667224
-0.0695986
-0.0713783
-0.0722313
-0.0722313
-0.0713783
-0.0695987
-0.0667224
-0.0624632
-0.0566067
-0.0506835
-0.0444188
-0.0374424
-0.0296136
-0.0212675
-0.0124067
-0.00299836
0.00686169
0.0170987
0.0276299
0.0383752
0.049245
0.0601593
0.0710203
0.0818199
0.0924429
0.103493
0.115314
0.12147
0.123442
0.119584
0.11623
0.113145
0.110221
0.107408
0.104692
0.102073
0.0995628
0.0971736
0.0949149
0.0927933
0.0908137
0.088979
0.0872915
0.0857528
0.0843645
0.0831274
0.0820428
0.0811114
0.0803341
0.0797113
0.0792439
0.078932
0.0787759
0.0809433
0.0811046
0.0814271
0.0819106
0.0825545
0.0833584
0.0843216
0.0854435
0.0867232
0.08816
0.089753
0.0915013
0.0934037
0.0954588
0.0976642
0.100016
0.102507
0.105125
0.107849
0.110654
0.113524
0.116462
0.119499
0.12271
0.119308
0.109456
0.100001
0.0890177
0.0777543
0.06646
0.0550662
0.0436059
0.0321178
0.0206704
0.00934473
-0.00177295
-0.0126131
-0.0230759
-0.0331002
-0.0423954
-0.0512171
-0.0598972
-0.06705
-0.0731687
-0.0792297
-0.0875354
-0.0919342
-0.0945846
-0.0961666
-0.0969176
-0.0969176
-0.0961666
-0.0945846
-0.0919342
-0.0875354
-0.0792297
-0.0731687
-0.06705
-0.0598972
-0.0512171
-0.0423955
-0.0331002
-0.0230759
-0.0126132
-0.00177299
0.00934467
0.0206703
0.0321177
0.0436058
0.0550661
0.0664599
0.0777542
0.0890176
0.100001
0.109456
0.119308
0.12271
0.119499
0.116462
0.113524
0.110654
0.107849
0.105125
0.102507
0.100016
0.0976642
0.0954588
0.0934037
0.0915014
0.0897531
0.0881601
0.0867233
0.0854436
0.0843217
0.0833585
0.0825546
0.0819107
0.0814273
0.0811048
0.0809434
0.0828064
0.0829725
0.0833045
0.0838022
0.0844651
0.0852927
0.0862844
0.0874394
0.0887572
0.0902369
0.0918782
0.0936804
0.0956433
0.0977666
0.10005
0.102491
0.105085
0.107817
0.110657
0.113554
0.116465
0.119367
0.122268
0.118284
0.107465
0.0967358
0.085939
0.0745761
0.0628861
0.0510235
0.0390374
0.0269743
0.0148792
0.00280839
-0.00914907
-0.0208884
-0.0323982
-0.0434923
-0.0543918
-0.0638374
-0.072775
-0.0836647
-0.0904783
-0.0954559
-0.099333
-0.102391
-0.104757
-0.106493
-0.107636
-0.108202
-0.108202
-0.107636
-0.106493
-0.104757
-0.102391
-0.099333
-0.0954559
-0.0904784
-0.0836647
-0.072775
-0.0638374
-0.0543918
-0.0434924
-0.0323982
-0.0208884
-0.00914913
0.00280833
0.0148792
0.0269742
0.0390374
0.0510234
0.0628861
0.0745761
0.085939
0.0967358
0.107465
0.118284
0.122268
0.119367
0.116465
0.113554
0.110657
0.107817
0.105085
0.102491
0.10005
0.0977666
0.0956434
0.0936805
0.0918783
0.090237
0.0887572
0.0874395
0.0862845
0.0852928
0.0844652
0.0838023
0.0833046
0.0829726
0.0828065
0.0843564
0.0845267
0.0848671
0.0853773
0.0860569
0.0869053
0.0879217
0.0891056
0.0904561
0.0919729
0.0936555
0.0955038
0.0975185
0.0997006
0.102052
0.104577
0.107275
0.11014
0.113131
0.11615
0.119106
0.121952
0.11776
0.106543
0.0952347
0.0838203
0.0722122
0.0602661
0.0480307
0.0355869
0.0229991
0.0103247
-0.00239606
-0.0151424
-0.0277994
-0.0401355
-0.052465
-0.0639351
-0.0769344
-0.0855552
-0.0921207
-0.0973925
-0.101606
-0.104692
-0.106092
-0.103769
-0.104031
-0.104814
-0.105494
-0.105867
-0.105867
-0.105494
-0.104814
-0.104031
-0.103769
-0.106092
-0.104692
-0.101606
-0.0973925
-0.0921207
-0.0855552
-0.0769344
-0.0639351
-0.052465
-0.0401355
-0.0277995
-0.0151425
-0.00239613
0.0103247
0.0229991
0.0355869
0.0480307
0.060266
0.0722122
0.0838202
0.0952347
0.106543
0.11776
0.121952
0.119106
0.11615
0.113131
0.11014
0.107275
0.104577
0.102052
0.0997007
0.0975186
0.0955039
0.0936555
0.091973
0.0904563
0.0891057
0.0879218
0.0869054
0.0860571
0.0853775
0.0848672
0.0845268
0.0843565
0.0855855
0.0857594
0.0861071
0.0866281
0.0873221
0.0881881
0.0892256
0.0904337
0.0918116
0.0933588
0.0950751
0.0969606
0.0990165
0.101245
0.103651
0.106244
0.109042
0.112066
0.115293
0.118504
0.121541
0.117421
0.106132
0.0946053
0.0828561
0.0708791
0.0586399
0.0460981
0.0332742
0.0202228
0.00701438
-0.00627237
-0.0196005
-0.0330978
-0.0466465
-0.0592264
-0.0731896
-0.0826108
-0.0897558
-0.0952022
-0.0986148
-0.0980185
-0.0996897
-0.101435
-0.102394
-0.102212
-0.102437
-0.102888
-0.10331
-0.103552
-0.103552
-0.10331
-0.102888
-0.102437
-0.102212
-0.102394
-0.101435
-0.0996898
-0.0980185
-0.0986149
-0.0952022
-0.0897559
-0.0826109
-0.0731896
-0.0592265
-0.0466465
-0.0330978
-0.0196006
-0.00627245
0.00701433
0.0202228
0.0332742
0.0460981
0.0586399
0.0708791
0.0828561
0.0946053
0.106132
0.117421
0.121541
0.118504
0.115293
0.112066
0.109042
0.106244
0.103651
0.101245
0.0990166
0.0969607
0.0950752
0.093359
0.0918118
0.0904339
0.0892258
0.0881883
0.0873222
0.0866283
0.0861073
0.0857596
0.0855857
0.0864873
0.0866643
0.087018
0.0875482
0.088254
0.0891347
0.0901894
0.0914171
0.0928167
0.0943876
0.0961293
0.098042
0.100127
0.102387
0.104826
0.107458
0.110319
0.113508
0.117175
0.12072
0.116983
0.105917
0.0944577
0.082641
0.0704931
0.0580246
0.0452322
0.0321126
0.0186851
0.00499554
-0.00887147
-0.0227666
-0.0365329
-0.0508566
-0.0662746
-0.076707
-0.0843637
-0.0894422
-0.0901349
-0.0927274
-0.0949551
-0.096041
-0.0973616
-0.0986237
-0.099497
-0.0999111
-0.10028
-0.100656
-0.100968
-0.101143
-0.101142
-0.100968
-0.100656
-0.10028
-0.0999111
-0.099497
-0.0986237
-0.0973616
-0.0960411
-0.0949551
-0.0927275
-0.0901349
-0.0894423
-0.0843638
-0.076707
-0.0662746
-0.0508566
-0.0365329
-0.0227666
-0.00887152
0.00499551
0.018685
0.0321126
0.0452322
0.0580246
0.0704931
0.082641
0.0944577
0.105917
0.116983
0.12072
0.117175
0.113508
0.110319
0.107458
0.104826
0.102387
0.100127
0.0980421
0.0961294
0.0943877
0.0928169
0.0914172
0.0901896
0.0891348
0.0882541
0.0875483
0.0870182
0.0866644
0.0864874
0.0870562
0.0872357
0.0875944
0.0881319
0.0888473
0.0897397
0.0908079
0.0920505
0.0934662
0.0950539
0.0968126
0.0987424
0.100844
0.103119
0.105567
0.108187
0.110997
0.114188
0.118874
0.116074
0.10562
0.0945261
0.0828964
0.0707999
0.05828
0.0453615
0.0320586
0.018382
0.00434621
-0.0100237
-0.0246557
-0.0392728
-0.0527481
-0.0673163
-0.0768136
-0.082857
-0.0839885
-0.0865195
-0.0882977
-0.0902972
-0.0921135
-0.0935063
-0.0947684
-0.0958766
-0.0967342
-0.0973314
-0.0977927
-0.098166
-0.0984393
-0.0985851
-0.0985851
-0.0984393
-0.098166
-0.0977927
-0.0973315
-0.0967342
-0.0958766
-0.0947685
-0.0935063
-0.0921136
-0.0902972
-0.0882978
-0.0865196
-0.0839885
-0.0828571
-0.0768136
-0.0673163
-0.0527481
-0.0392729
-0.0246557
-0.0100238
0.00434616
0.018382
0.0320586
0.0453615
0.05828
0.0707999
0.0828964
0.0945262
0.10562
0.116075
0.118874
0.114189
0.110997
0.108187
0.105567
0.103119
0.100844
0.0987425
0.0968127
0.095054
0.0934664
0.0920507
0.090808
0.0897398
0.0888474
0.088132
0.0875946
0.0872358
0.0870564
0.0872879
0.0874694
0.087832
0.0883751
0.0890979
0.0899992
0.0910773
0.0923306
0.093757
0.0953547
0.0971222
0.0990589
0.101166
0.103444
0.10589
0.108466
0.111021
0.113084
0.113925
0.104956
0.0946186
0.08343
0.0715961
0.0592138
0.0463353
0.0329925
0.0192091
0.00500319
-0.00962273
-0.0247004
-0.0403286
-0.0567488
-0.0676563
-0.0747665
-0.0766982
-0.0797959
-0.0819131
-0.0840462
-0.0859353
-0.087744
-0.0893878
-0.0907938
-0.0920202
-0.0930705
-0.0939218
-0.0945785
-0.0950843
-0.0954669
-0.0957296
-0.0958645
-0.0958645
-0.0957296
-0.0954669
-0.0950844
-0.0945786
-0.0939219
-0.0930706
-0.0920202
-0.0907939
-0.0893879
-0.0877441
-0.0859353
-0.0840462
-0.0819132
-0.0797959
-0.0766983
-0.0747666
-0.0676563
-0.0567489
-0.0403286
-0.0247004
-0.00962275
0.00500316
0.0192091
0.0329925
0.0463353
0.0592138
0.0715961
0.08343
0.0946187
0.104956
0.113925
0.113084
0.111021
0.108466
0.10589
0.103444
0.101166
0.099059
0.0971223
0.0953548
0.0937572
0.0923308
0.0910775
0.0899993
0.0890981
0.0883753
0.0878321
0.0874695
0.0872881
0.0871793
0.0873622
0.0877276
0.0882749
0.089003
0.0899105
0.0909955
0.0922555
0.0936879
0.0952894
0.0970576
0.0989909
0.101091
0.103367
0.105833
0.108504
0.111262
0.112911
0.104668
0.0949344
0.0842302
0.0727747
0.060676
0.0479938
0.0347641
0.0210143
0.00677476
-0.00791911
-0.0230578
-0.0386973
-0.0550305
-0.065686
-0.0722777
-0.0732929
-0.0751348
-0.0774285
-0.0795344
-0.0815273
-0.0833627
-0.0850638
-0.0866067
-0.0879669
-0.0891532
-0.0901683
-0.0910088
-0.0916811
-0.0922039
-0.0925925
-0.0928526
-0.0929835
-0.0929836
-0.0928526
-0.0925925
-0.0922039
-0.0916811
-0.0910089
-0.0901683
-0.0891532
-0.0879669
-0.0866068
-0.0850639
-0.0833627
-0.0815273
-0.0795344
-0.0774285
-0.0751349
-0.073293
-0.0722777
-0.0656861
-0.0550305
-0.0386973
-0.0230579
-0.00791913
0.00677475
0.0210142
0.0347641
0.0479938
0.0606761
0.0727748
0.0842302
0.0949344
0.104668
0.112911
0.111262
0.108505
0.105833
0.103367
0.101091
0.098991
0.0970577
0.0952896
0.093688
0.0922557
0.0909956
0.0899107
0.0890032
0.0882751
0.0877278
0.0873624
0.0871795
0.0867283
0.0869121
0.0872793
0.0878293
0.0885609
0.0894723
0.0905614
0.0918251
0.0932595
0.09486
0.0966215
0.09854
0.100615
0.102859
0.105321
0.108191
0.112331
0.108517
0.0966356
0.085646
0.0743885
0.0625931
0.0502071
0.0372275
0.0236599
0.00951503
-0.00517195
-0.0203175
-0.0358658
-0.0518244
-0.0613619
-0.0646077
-0.0683795
-0.0707204
-0.0728482
-0.0749757
-0.0769941
-0.07889
-0.0806471
-0.0822637
-0.0837292
-0.0850337
-0.0861768
-0.0871594
-0.0879826
-0.0886517
-0.0891762
-0.089565
-0.0898231
-0.0899521
-0.089952
-0.0898231
-0.089565
-0.0891762
-0.0886517
-0.0879827
-0.0871595
-0.0861769
-0.0850338
-0.0837292
-0.0822637
-0.0806472
-0.0788901
-0.0769941
-0.0749758
-0.0728483
-0.0707205
-0.0683796
-0.0646078
-0.061362
-0.0518244
-0.0358658
-0.0203176
-0.00517196
0.00951504
0.0236599
0.0372275
0.0502071
0.0625931
0.0743885
0.085646
0.0966356
0.108517
0.112331
0.108191
0.105321
0.102859
0.100615
0.0985401
0.0966216
0.0948601
0.0932596
0.0918252
0.0905616
0.0894725
0.088561
0.0878295
0.0872795
0.0869123
0.0867285
0.085934
0.0861182
0.0864863
0.0870376
0.0877708
0.0886843
0.0897754
0.0910405
0.0924747
0.0940713
0.0958216
0.0977157
0.0997432
0.101894
0.104147
0.106341
0.107245
0.0980917
0.0874698
0.0764182
0.0649121
0.0528656
0.0402329
0.0269903
0.0131158
-0.00141547
-0.0165877
-0.0321936
-0.0480946
-0.0573331
-0.0599185
-0.0627528
-0.0656557
-0.0681032
-0.0703031
-0.0723721
-0.074315
-0.0761291
-0.0778087
-0.0793498
-0.0807471
-0.0819957
-0.0830941
-0.0840427
-0.084843
-0.085499
-0.0860163
-0.0864002
-0.0866546
-0.0867815
-0.0867815
-0.0866546
-0.0864002
-0.0860163
-0.0854991
-0.084843
-0.0840427
-0.0830942
-0.0819958
-0.0807472
-0.0793499
-0.0778087
-0.0761292
-0.074315
-0.0723722
-0.0703032
-0.0681033
-0.0656557
-0.0627529
-0.0599185
-0.0573332
-0.0480947
-0.0321936
-0.0165878
-0.00141547
0.0131159
0.0269903
0.0402329
0.0528656
0.0649121
0.0764182
0.0874698
0.0980918
0.107245
0.106341
0.104147
0.101894
0.0997433
0.0977158
0.0958217
0.0940714
0.0924749
0.0910407
0.0897755
0.0886844
0.087771
0.0870377
0.0864864
0.0861183
0.0859341
0.0847966
0.0849807
0.0853486
0.0858998
0.0866331
0.0875468
0.0886383
0.0899039
0.0913375
0.0929307
0.0946711
0.0965414
0.0985203
0.100589
0.102781
0.105517
0.0981239
0.0888899
0.0785217
0.0674674
0.0558336
0.0436187
0.0308019
0.0173588
0.00324535
-0.0116431
-0.0274605
-0.0436157
-0.0529566
-0.0554396
-0.0579895
-0.0605902
-0.0631447
-0.0654892
-0.0676432
-0.0696475