/*--------------------------------*- C++ -*----------------------------------*\
  =========                 |
  \\      /  F ield         | OpenFOAM: The Open Source CFD Toolbox
   \\    /   O peration     | Website:  https://openfoam.org
    \\  /    A nd           | Version:  7
     \\/     M anipulation  |
\*---------------------------------------------------------------------------*/
FoamFile
{
    version     2.0;
    format      ascii;
    class       volScalarField;
    location    "0.046";
    object      gradTy;
}
// * * * * * * * * * * * * * * * * * * * * * * * * * * * * * * * * * * * * * //

dimensions      [0 -1 0 1 0 0 0];

internalField   nonuniform List<scalar> 
10000
(
4.60574e-06
4.56339e-06
4.60574e-06
4.60574e-06
4.60574e-06
4.59515e-06
4.59515e-06
4.59515e-06
4.57398e-06
4.57398e-06
4.57398e-06
4.53163e-06
4.5528e-06
4.54221e-06
4.54221e-06
4.51045e-06
4.49986e-06
4.49986e-06
4.47869e-06
4.4681e-06
4.45751e-06
4.43634e-06
4.42575e-06
4.41516e-06
4.40457e-06
4.37281e-06
4.37281e-06
4.37281e-06
4.33046e-06
4.30928e-06
4.30928e-06
4.29869e-06
4.27752e-06
4.26693e-06
4.24575e-06
4.25634e-06
4.23516e-06
4.21399e-06
4.2034e-06
4.19281e-06
4.19281e-06
4.18223e-06
4.18223e-06
4.17164e-06
4.16105e-06
4.17164e-06
4.15046e-06
4.16105e-06
4.16105e-06
4.15046e-06
4.16105e-06
4.16105e-06
4.16105e-06
4.17164e-06
4.17164e-06
4.18223e-06
4.19281e-06
4.18223e-06
4.18223e-06
4.18223e-06
4.19281e-06
4.21399e-06
4.2034e-06
4.24575e-06
4.25634e-06
4.24575e-06
4.25634e-06
4.27752e-06
4.2881e-06
4.30928e-06
4.34104e-06
4.33046e-06
4.35163e-06
4.35163e-06
4.39398e-06
4.40457e-06
4.40457e-06
4.41516e-06
4.43634e-06
4.4681e-06
4.45751e-06
4.47869e-06
4.47869e-06
4.49986e-06
4.51045e-06
4.52104e-06
4.5528e-06
4.5528e-06
4.5528e-06
4.57398e-06
4.58457e-06
4.58457e-06
4.58457e-06
4.59515e-06
4.61633e-06
4.60574e-06
4.60574e-06
4.60574e-06
4.60574e-06
4.61633e-06
1.38172e-05
1.38066e-05
1.38066e-05
1.38066e-05
1.3796e-05
1.37855e-05
1.37749e-05
1.37643e-05
1.37643e-05
1.37113e-05
1.3669e-05
1.36584e-05
1.36161e-05
1.35843e-05
1.35737e-05
1.35102e-05
1.34678e-05
1.34572e-05
1.34149e-05
1.33619e-05
1.3309e-05
1.32878e-05
1.32455e-05
1.32031e-05
1.31608e-05
1.31396e-05
1.30867e-05
1.30337e-05
1.29914e-05
1.29702e-05
1.29173e-05
1.28643e-05
1.28114e-05
1.27902e-05
1.27267e-05
1.27055e-05
1.26843e-05
1.2642e-05
1.26102e-05
1.2589e-05
1.25679e-05
1.25255e-05
1.25149e-05
1.25043e-05
1.24831e-05
1.24831e-05
1.2462e-05
1.2462e-05
1.24726e-05
1.24514e-05
1.24514e-05
1.24514e-05
1.2462e-05
1.24726e-05
1.24831e-05
1.25149e-05
1.25149e-05
1.25255e-05
1.25573e-05
1.25679e-05
1.2589e-05
1.26208e-05
1.26314e-05
1.26737e-05
1.26949e-05
1.27373e-05
1.27796e-05
1.2822e-05
1.28537e-05
1.29067e-05
1.2949e-05
1.29914e-05
1.30231e-05
1.30655e-05
1.31078e-05
1.31502e-05
1.3182e-05
1.32349e-05
1.32667e-05
1.33302e-05
1.33514e-05
1.33937e-05
1.34255e-05
1.34784e-05
1.34996e-05
1.35525e-05
1.35737e-05
1.36055e-05
1.36372e-05
1.37008e-05
1.37008e-05
1.37431e-05
1.37431e-05
1.37643e-05
1.37749e-05
1.37855e-05
1.3796e-05
1.38172e-05
1.38172e-05
1.38066e-05
2.29864e-05
2.29864e-05
2.29546e-05
2.2944e-05
2.29334e-05
2.29017e-05
2.29017e-05
2.28381e-05
2.28275e-05
2.27852e-05
2.27322e-05
2.26899e-05
2.2637e-05
2.2584e-05
2.25205e-05
2.24781e-05
2.24252e-05
2.23617e-05
2.22981e-05
2.2224e-05
2.21393e-05
2.20652e-05
2.20229e-05
2.19276e-05
2.1864e-05
2.18005e-05
2.1737e-05
2.16629e-05
2.15993e-05
2.15358e-05
2.14617e-05
2.1377e-05
2.13346e-05
2.12499e-05
2.1197e-05
2.11123e-05
2.10699e-05
2.10064e-05
2.09323e-05
2.09111e-05
2.08794e-05
2.08476e-05
2.08052e-05
2.07841e-05
2.07523e-05
2.071e-05
2.07417e-05
2.06994e-05
2.06888e-05
2.06782e-05
2.06782e-05
2.06782e-05
2.06888e-05
2.071e-05
2.07417e-05
2.07523e-05
2.07629e-05
2.08158e-05
2.08264e-05
2.08794e-05
2.089e-05
2.09641e-05
2.09958e-05
2.10594e-05
2.11123e-05
2.11652e-05
2.12394e-05
2.13029e-05
2.1377e-05
2.14299e-05
2.14829e-05
2.15464e-05
2.16417e-05
2.17264e-05
2.17899e-05
2.18429e-05
2.19276e-05
2.19699e-05
2.2044e-05
2.2097e-05
2.22029e-05
2.22558e-05
2.23405e-05
2.23934e-05
2.24464e-05
2.24993e-05
2.25417e-05
2.26158e-05
2.26899e-05
2.27322e-05
2.2764e-05
2.27958e-05
2.28275e-05
2.28593e-05
2.28805e-05
2.28911e-05
2.29228e-05
2.2944e-05
2.2944e-05
2.29546e-05
3.2039e-05
3.2039e-05
3.20178e-05
3.19967e-05
3.20073e-05
3.19755e-05
3.19014e-05
3.1859e-05
3.18061e-05
3.17637e-05
3.17108e-05
3.16261e-05
3.15626e-05
3.15096e-05
3.14143e-05
3.13614e-05
3.12767e-05
3.11602e-05
3.10755e-05
3.09908e-05
3.08744e-05
3.08214e-05
3.06944e-05
3.06097e-05
3.04932e-05
3.03873e-05
3.0292e-05
3.01755e-05
3.00908e-05
2.99638e-05
2.99109e-05
2.98261e-05
2.97203e-05
2.96356e-05
2.95297e-05
2.94556e-05
2.93603e-05
2.93073e-05
2.92332e-05
2.91697e-05
2.91062e-05
2.90744e-05
2.90426e-05
2.89791e-05
2.89474e-05
2.89262e-05
2.88838e-05
2.88944e-05
2.88415e-05
2.88626e-05
2.88732e-05
2.88732e-05
2.88626e-05
2.88626e-05
2.8905e-05
2.89368e-05
2.89685e-05
2.90109e-05
2.90638e-05
2.90956e-05
2.91591e-05
2.92332e-05
2.93073e-05
2.93709e-05
2.94662e-05
2.95509e-05
2.9625e-05
2.96991e-05
2.97838e-05
2.98897e-05
2.9985e-05
3.01014e-05
3.01861e-05
3.02814e-05
3.04085e-05
3.04614e-05
3.05673e-05
3.06626e-05
3.07473e-05
3.08532e-05
3.09379e-05
3.10543e-05
3.1139e-05
3.12343e-05
3.12979e-05
3.1372e-05
3.14779e-05
3.1552e-05
3.16155e-05
3.1679e-05
3.17426e-05
3.18061e-05
3.18484e-05
3.18908e-05
3.19226e-05
3.19649e-05
3.19755e-05
3.19755e-05
3.20178e-05
3.20178e-05
4.09646e-05
4.0954e-05
4.0954e-05
4.09223e-05
4.08905e-05
4.08588e-05
4.08058e-05
4.07529e-05
4.06893e-05
4.06046e-05
4.05305e-05
4.04564e-05
4.03929e-05
4.0287e-05
4.01917e-05
4.00858e-05
3.99694e-05
3.98423e-05
3.97258e-05
3.95988e-05
3.95141e-05
3.93659e-05
3.92282e-05
3.91223e-05
3.90059e-05
3.88682e-05
3.87306e-05
3.86247e-05
3.84976e-05
3.83494e-05
3.82329e-05
3.81271e-05
3.8e-05
3.78941e-05
3.77777e-05
3.76612e-05
3.75659e-05
3.74812e-05
3.74283e-05
3.73436e-05
3.72483e-05
3.71953e-05
3.71212e-05
3.70577e-05
3.70365e-05
3.69942e-05
3.69518e-05
3.69306e-05
3.69095e-05
3.68989e-05
3.68883e-05
3.69306e-05
3.69412e-05
3.69518e-05
3.6973e-05
3.69942e-05
3.70471e-05
3.71106e-05
3.71847e-05
3.72377e-05
3.73436e-05
3.73965e-05
3.74918e-05
3.75765e-05
3.76612e-05
3.77777e-05
3.78941e-05
3.8e-05
3.81059e-05
3.82224e-05
3.83494e-05
3.84659e-05
3.86035e-05
3.87306e-05
3.88576e-05
3.89953e-05
3.91012e-05
3.92494e-05
3.93764e-05
3.94823e-05
3.95988e-05
3.97364e-05
3.98317e-05
3.9927e-05
4.00541e-05
4.01705e-05
4.02658e-05
4.03611e-05
4.04458e-05
4.05199e-05
4.06046e-05
4.06788e-05
4.07423e-05
4.07846e-05
4.08376e-05
4.08693e-05
4.09117e-05
4.09435e-05
4.0954e-05
4.09646e-05
4.97526e-05
4.9742e-05
4.97208e-05
4.96891e-05
4.96361e-05
4.96044e-05
4.95726e-05
4.94879e-05
4.94138e-05
4.93185e-05
4.9202e-05
4.91279e-05
4.9022e-05
4.89056e-05
4.87997e-05
4.86726e-05
4.8535e-05
4.84079e-05
4.82385e-05
4.81009e-05
4.79632e-05
4.78044e-05
4.76774e-05
4.75291e-05
4.73491e-05
4.71797e-05
4.70315e-05
4.68939e-05
4.67245e-05
4.65868e-05
4.6428e-05
4.62798e-05
4.61633e-05
4.60151e-05
4.5888e-05
4.5761e-05
4.56445e-05
4.55386e-05
4.54116e-05
4.53163e-05
4.52421e-05
4.51574e-05
4.50516e-05
4.50092e-05
4.49563e-05
4.48927e-05
4.4861e-05
4.48186e-05
4.48186e-05
4.47975e-05
4.47763e-05
4.47975e-05
4.48292e-05
4.48716e-05
4.49033e-05
4.49563e-05
4.50092e-05
4.50727e-05
4.51363e-05
4.52421e-05
4.53269e-05
4.54327e-05
4.5528e-05
4.56233e-05
4.57398e-05
4.58668e-05
4.60045e-05
4.61633e-05
4.62904e-05
4.6428e-05
4.65656e-05
4.67245e-05
4.68833e-05
4.70315e-05
4.71797e-05
4.73386e-05
4.74974e-05
4.76456e-05
4.77938e-05
4.79527e-05
4.81009e-05
4.82385e-05
4.83762e-05
4.84926e-05
4.86303e-05
4.87467e-05
4.88844e-05
4.90114e-05
4.90961e-05
4.9202e-05
4.92867e-05
4.93608e-05
4.94561e-05
4.95197e-05
4.95726e-05
4.96361e-05
4.96785e-05
4.96997e-05
4.97208e-05
4.97208e-05
5.8297e-05
5.8297e-05
5.82759e-05
5.82547e-05
5.82123e-05
5.81488e-05
5.80747e-05
5.80112e-05
5.79265e-05
5.78206e-05
5.77147e-05
5.75877e-05
5.745e-05
5.73441e-05
5.71959e-05
5.70371e-05
5.68783e-05
5.673e-05
5.65712e-05
5.64018e-05
5.6243e-05
5.60736e-05
5.58724e-05
5.56818e-05
5.55018e-05
5.53218e-05
5.51418e-05
5.49619e-05
5.47713e-05
5.46124e-05
5.4443e-05
5.4263e-05
5.41042e-05
5.39454e-05
5.37866e-05
5.36384e-05
5.35007e-05
5.33843e-05
5.32678e-05
5.31301e-05
5.30243e-05
5.29184e-05
5.28443e-05
5.27596e-05
5.2696e-05
5.26537e-05
5.26007e-05
5.25584e-05
5.25372e-05
5.25266e-05
5.25266e-05
5.2516e-05
5.25478e-05
5.25902e-05
5.26537e-05
5.2696e-05
5.27702e-05
5.28443e-05
5.29396e-05
5.30243e-05
5.31196e-05
5.3236e-05
5.33631e-05
5.35113e-05
5.36278e-05
5.37866e-05
5.39454e-05
5.40936e-05
5.42736e-05
5.44325e-05
5.46124e-05
5.47713e-05
5.49619e-05
5.51313e-05
5.53007e-05
5.55018e-05
5.56924e-05
5.58512e-05
5.60312e-05
5.62218e-05
5.63912e-05
5.65606e-05
5.67089e-05
5.68783e-05
5.70371e-05
5.71959e-05
5.73124e-05
5.745e-05
5.75665e-05
5.76724e-05
5.77994e-05
5.78841e-05
5.79688e-05
5.80429e-05
5.8117e-05
5.81912e-05
5.82123e-05
5.82653e-05
5.82865e-05
5.82865e-05
6.66509e-05
6.66509e-05
6.66086e-05
6.65768e-05
6.65239e-05
6.64603e-05
6.6365e-05
6.62697e-05
6.61744e-05
6.60792e-05
6.59733e-05
6.58462e-05
6.57086e-05
6.55392e-05
6.53804e-05
6.51898e-05
6.50098e-05
6.48298e-05
6.46604e-05
6.4491e-05
6.42792e-05
6.40675e-05
6.38663e-05
6.36545e-05
6.34639e-05
6.32628e-05
6.30298e-05
6.27969e-05
6.26381e-05
6.24157e-05
6.22252e-05
6.20452e-05
6.1844e-05
6.1664e-05
6.14946e-05
6.13358e-05
6.11875e-05
6.10287e-05
6.08805e-05
6.07534e-05
6.06052e-05
6.05099e-05
6.04146e-05
6.03087e-05
6.02346e-05
6.01817e-05
6.01182e-05
6.00864e-05
6.00546e-05
6.00335e-05
6.0044e-05
6.00652e-05
6.00864e-05
6.01182e-05
6.01605e-05
6.02452e-05
6.03405e-05
6.04146e-05
6.04993e-05
6.06158e-05
6.07534e-05
6.08593e-05
6.0997e-05
6.11558e-05
6.13146e-05
6.14946e-05
6.16534e-05
6.18546e-05
6.20452e-05
6.22252e-05
6.24369e-05
6.26275e-05
6.27969e-05
6.30193e-05
6.32204e-05
6.34428e-05
6.36545e-05
6.38557e-05
6.4078e-05
6.42686e-05
6.44698e-05
6.46498e-05
6.48615e-05
6.50521e-05
6.52215e-05
6.53909e-05
6.55392e-05
6.56768e-05
6.58145e-05
6.59521e-05
6.60792e-05
6.6185e-05
6.62803e-05
6.63756e-05
6.64497e-05
6.65027e-05
6.65556e-05
6.65874e-05
6.66086e-05
6.66615e-05
7.47401e-05
7.47189e-05
7.46977e-05
7.46342e-05
7.45813e-05
7.45177e-05
7.44224e-05
7.43377e-05
7.42107e-05
7.40836e-05
7.39672e-05
7.37977e-05
7.36283e-05
7.34589e-05
7.32683e-05
7.30778e-05
7.29084e-05
7.26966e-05
7.25166e-05
7.22625e-05
7.20507e-05
7.1839e-05
7.16166e-05
7.13731e-05
7.11296e-05
7.09072e-05
7.06743e-05
7.04626e-05
7.0219e-05
7.00179e-05
6.97849e-05
6.9552e-05
6.93402e-05
6.91285e-05
6.89591e-05
6.87791e-05
6.85991e-05
6.84297e-05
6.82603e-05
6.81332e-05
6.79744e-05
6.78473e-05
6.77203e-05
6.7625e-05
6.75297e-05
6.7445e-05
6.74132e-05
6.73709e-05
6.73391e-05
6.73179e-05
6.73391e-05
6.73285e-05
6.73603e-05
6.74132e-05
6.74556e-05
6.75509e-05
6.76356e-05
6.77309e-05
6.78473e-05
6.79956e-05
6.81226e-05
6.82603e-05
6.84085e-05
6.85673e-05
6.87897e-05
6.89485e-05
6.91602e-05
6.93508e-05
6.95626e-05
6.98061e-05
7.00179e-05
7.02296e-05
7.0452e-05
7.06637e-05
7.09072e-05
7.11296e-05
7.13625e-05
7.1606e-05
7.1839e-05
7.20613e-05
7.22837e-05
7.24848e-05
7.27072e-05
7.29189e-05
7.31307e-05
7.33001e-05
7.34801e-05
7.36389e-05
7.38189e-05
7.39566e-05
7.4073e-05
7.42001e-05
7.43271e-05
7.4433e-05
7.4486e-05
7.45601e-05
7.4613e-05
7.46554e-05
7.46977e-05
7.47189e-05
8.2501e-05
8.24904e-05
8.24692e-05
8.24269e-05
8.23845e-05
8.22893e-05
8.22045e-05
8.20775e-05
8.19716e-05
8.18551e-05
8.16857e-05
8.15057e-05
8.13363e-05
8.11246e-05
8.09234e-05
8.07222e-05
8.04893e-05
8.02775e-05
8.00552e-05
7.98223e-05
7.95576e-05
7.93246e-05
7.90705e-05
7.88164e-05
7.85729e-05
7.83082e-05
7.80647e-05
7.78e-05
7.75459e-05
7.73129e-05
7.70376e-05
7.68047e-05
7.65506e-05
7.63494e-05
7.61483e-05
7.59471e-05
7.57565e-05
7.55553e-05
7.53965e-05
7.51848e-05
7.50683e-05
7.49095e-05
7.47718e-05
7.46765e-05
7.45707e-05
7.45071e-05
7.44436e-05
7.43695e-05
7.43483e-05
7.43589e-05
7.43695e-05
7.43801e-05
7.43801e-05
7.44542e-05
7.45283e-05
7.46024e-05
7.46977e-05
7.4793e-05
7.49307e-05
7.50577e-05
7.52165e-05
7.53753e-05
7.55553e-05
7.57565e-05
7.59259e-05
7.61059e-05
7.63388e-05
7.65506e-05
7.68047e-05
7.70588e-05
7.72918e-05
7.75565e-05
7.78e-05
7.80435e-05
7.83082e-05
7.85623e-05
7.88164e-05
7.90811e-05
7.93246e-05
7.95893e-05
7.98117e-05
8.00658e-05
8.02987e-05
8.05211e-05
8.07434e-05
8.09658e-05
8.11669e-05
8.13363e-05
8.15163e-05
8.16752e-05
8.18234e-05
8.1961e-05
8.20669e-05
8.21834e-05
8.22575e-05
8.23528e-05
8.24163e-05
8.24587e-05
8.25116e-05
8.25222e-05
8.99761e-05
8.99655e-05
8.99231e-05
8.98914e-05
8.98067e-05
8.9722e-05
8.96373e-05
8.95314e-05
8.93832e-05
8.92349e-05
8.90655e-05
8.88961e-05
8.86843e-05
8.84832e-05
8.8282e-05
8.80491e-05
8.78161e-05
8.75409e-05
8.7255e-05
8.70009e-05
8.67362e-05
8.64821e-05
8.61962e-05
8.59421e-05
8.56562e-05
8.53597e-05
8.51056e-05
8.48198e-05
8.45339e-05
8.4248e-05
8.39833e-05
8.37292e-05
8.34963e-05
8.32528e-05
8.30092e-05
8.28081e-05
8.25751e-05
8.23845e-05
8.21728e-05
8.19928e-05
8.1834e-05
8.16752e-05
8.15375e-05
8.14105e-05
8.13152e-05
8.12199e-05
8.11352e-05
8.1114e-05
8.10822e-05
8.10716e-05
8.10505e-05
8.10822e-05
8.11458e-05
8.11669e-05
8.12516e-05
8.13258e-05
8.14316e-05
8.15587e-05
8.16857e-05
8.18446e-05
8.20034e-05
8.21728e-05
8.23634e-05
8.25645e-05
8.27763e-05
8.29881e-05
8.32316e-05
8.34751e-05
8.37292e-05
8.39833e-05
8.42798e-05
8.45551e-05
8.48198e-05
8.51056e-05
8.53915e-05
8.5688e-05
8.59738e-05
8.62174e-05
8.65138e-05
8.67785e-05
8.70432e-05
8.73291e-05
8.75726e-05
8.78056e-05
8.80385e-05
8.82608e-05
8.84938e-05
8.86949e-05
8.88749e-05
8.90443e-05
8.92243e-05
8.93726e-05
8.95102e-05
8.96055e-05
8.97326e-05
8.98067e-05
8.98914e-05
8.99443e-05
8.99655e-05
8.99761e-05
9.70806e-05
9.707e-05
9.70276e-05
9.69535e-05
9.689e-05
9.68159e-05
9.67206e-05
9.65935e-05
9.64241e-05
9.62547e-05
9.60959e-05
9.58947e-05
9.57041e-05
9.54712e-05
9.52594e-05
9.50053e-05
9.47512e-05
9.44653e-05
9.41795e-05
9.3883e-05
9.35971e-05
9.33007e-05
9.30254e-05
9.27183e-05
9.24219e-05
9.2136e-05
9.1829e-05
9.15325e-05
9.12254e-05
9.09184e-05
9.06325e-05
9.03572e-05
9.01031e-05
8.9849e-05
8.95843e-05
8.93302e-05
8.91079e-05
8.88643e-05
8.86632e-05
8.84726e-05
8.82714e-05
8.8102e-05
8.79644e-05
8.78373e-05
8.77314e-05
8.76361e-05
8.75726e-05
8.75303e-05
8.74879e-05
8.74667e-05
8.74773e-05
8.74879e-05
8.75409e-05
8.75832e-05
8.76467e-05
8.77632e-05
8.78691e-05
8.79855e-05
8.8155e-05
8.83032e-05
8.84832e-05
8.86738e-05
8.88855e-05
8.91079e-05
8.93302e-05
8.95737e-05
8.98067e-05
9.0082e-05
9.03784e-05
9.06325e-05
9.09184e-05
9.12466e-05
9.15431e-05
9.18395e-05
9.21572e-05
9.24536e-05
9.27607e-05
9.30677e-05
9.3343e-05
9.36395e-05
9.39465e-05
9.42112e-05
9.44759e-05
9.47618e-05
9.50053e-05
9.52489e-05
9.54712e-05
9.57041e-05
9.59053e-05
9.61171e-05
9.62653e-05
9.64347e-05
9.65618e-05
9.66888e-05
9.68053e-05
9.69112e-05
9.69747e-05
9.70594e-05
9.70912e-05
9.71017e-05
0.000103814
0.000103772
0.00010374
0.000103687
0.000103592
0.000103497
0.00010337
0.000103253
0.000103084
0.000102915
0.000102713
0.000102533
0.000102311
0.000102078
0.000101803
0.000101559
0.000101273
0.000100998
0.000100702
0.000100416
0.000100109
9.97487e-05
9.94311e-05
9.9124e-05
9.8817e-05
9.85099e-05
9.81923e-05
9.78429e-05
9.75358e-05
9.72288e-05
9.69217e-05
9.66041e-05
9.63288e-05
9.60535e-05
9.57888e-05
9.55136e-05
9.52383e-05
9.50159e-05
9.47936e-05
9.45924e-05
9.43912e-05
9.42218e-05
9.40736e-05
9.39254e-05
9.37983e-05
9.37136e-05
9.36501e-05
9.3576e-05
9.3523e-05
9.3523e-05
9.35124e-05
9.35442e-05
9.3576e-05
9.36501e-05
9.37136e-05
9.37983e-05
9.3936e-05
9.40842e-05
9.42324e-05
9.43912e-05
9.45712e-05
9.48148e-05
9.50265e-05
9.52489e-05
9.5503e-05
9.57888e-05
9.60429e-05
9.63394e-05
9.66041e-05
9.69323e-05
9.725e-05
9.75464e-05
9.78852e-05
9.82135e-05
9.85205e-05
9.88487e-05
9.91558e-05
9.95052e-05
9.98228e-05
0.000100119
0.000100416
0.000100712
0.00010103
0.000101305
0.00010158
0.000101835
0.000102089
0.000102332
0.000102544
0.000102745
0.000102936
0.000103073
0.000103243
0.00010338
0.000103497
0.000103603
0.000103687
0.00010374
0.000103793
0.000103836
0.000110114
0.000110114
0.000110083
0.000110019
0.000109913
0.000109786
0.000109659
0.0001095
0.000109373
0.000109193
0.000108992
0.00010877
0.000108526
0.000108272
0.000108007
0.000107732
0.000107436
0.000107128
0.000106821
0.000106525
0.000106165
0.000105816
0.000105477
0.000105159
0.000104831
0.000104503
0.000104153
0.000103793
0.000103476
0.000103137
0.000102819
0.000102502
0.000102184
0.000101887
0.000101591
0.000101305
0.00010104
0.000100797
0.000100553
0.000100342
0.000100151
9.99605e-05
9.98017e-05
9.9664e-05
9.95264e-05
9.94417e-05
9.93358e-05
9.92617e-05
9.92405e-05
9.91876e-05
9.91981e-05
9.92299e-05
9.92511e-05
9.93146e-05
9.94099e-05
9.95158e-05
9.96534e-05
9.98017e-05
9.99393e-05
0.000100151
0.000100352
0.000100564
0.000100808
0.000101062
0.000101326
0.000101612
0.000101909
0.000102205
0.000102502
0.000102862
0.000103179
0.000103507
0.000103825
0.000104196
0.000104524
0.000104873
0.000105201
0.00010554
0.00010589
0.000106229
0.000106546
0.000106864
0.000107171
0.000107488
0.000107774
0.00010805
0.000108314
0.000108558
0.000108801
0.000109003
0.000109183
0.000109373
0.000109521
0.00010968
0.000109828
0.000109903
0.000109998
0.000110051
0.000110093
0.000110125
0.000115991
0.000115959
0.000115927
0.000115874
0.000115789
0.000115652
0.000115535
0.000115387
0.000115196
0.000115006
0.000114805
0.000114561
0.000114328
0.000114053
0.000113778
0.000113481
0.000113174
0.000112867
0.000112528
0.00011219
0.000111851
0.000111501
0.000111131
0.00011075
0.0001104
0.000110051
0.00010967
0.000109352
0.000108971
0.000108621
0.000108283
0.000107976
0.000107637
0.000107308
0.000107012
0.000106705
0.00010644
0.000106154
0.000105921
0.000105689
0.000105477
0.000105297
0.000105149
0.000104979
0.000104852
0.000104725
0.00010463
0.000104556
0.000104513
0.000104482
0.000104482
0.000104524
0.000104577
0.00010464
0.000104714
0.000104831
0.000104926
0.000105096
0.000105276
0.000105466
0.000105689
0.000105921
0.000106197
0.000106451
0.000106747
0.000107044
0.000107361
0.000107668
0.000108007
0.000108314
0.000108664
0.000109013
0.000109384
0.000109723
0.000110083
0.000110453
0.000110824
0.000111184
0.000111544
0.000111904
0.000112242
0.000112571
0.000112899
0.000113206
0.000113513
0.00011382
0.000114074
0.000114328
0.000114572
0.000114794
0.000115016
0.000115207
0.000115398
0.000115546
0.000115673
0.000115779
0.000115864
0.000115938
0.000115991
0.000115991
0.000121412
0.00012138
0.000121327
0.000121253
0.000121168
0.000121083
0.000120914
0.000120766
0.000120607
0.000120395
0.000120152
0.000119919
0.000119643
0.000119421
0.000119103
0.000118807
0.000118479
0.000118151
0.000117791
0.000117431
0.000117071
0.000116711
0.00011634
0.000115969
0.000115556
0.000115186
0.000114805
0.000114424
0.000114074
0.000113714
0.000113375
0.000113005
0.000112666
0.000112338
0.000111999
0.000111713
0.000111406
0.000111131
0.000110877
0.000110644
0.0001104
0.00011022
0.000110008
0.00010986
0.000109733
0.000109595
0.0001095
0.000109437
0.000109363
0.000109352
0.000109373
0.000109394
0.000109458
0.000109532
0.000109617
0.000109723
0.000109871
0.000110019
0.000110199
0.0001104
0.000110633
0.000110887
0.000111141
0.000111438
0.000111724
0.000112041
0.000112348
0.000112698
0.000113037
0.000113386
0.000113735
0.000114095
0.000114477
0.000114847
0.000115239
0.00011562
0.000115991
0.000116372
0.000116742
0.000117113
0.000117473
0.000117822
0.000118151
0.000118468
0.000118807
0.000119103
0.0001194
0.000119686
0.000119929
0.000120173
0.000120395
0.000120596
0.000120787
0.000120935
0.000121083
0.0001212
0.000121295
0.000121359
0.000121401
0.000121433
0.000126335
0.000126324
0.000126261
0.000126187
0.000126091
0.000125975
0.000125837
0.000125668
0.000125499
0.000125287
0.000125043
0.00012481
0.000124524
0.000124239
0.000123942
0.000123624
0.000123296
0.000122947
0.000122587
0.000122227
0.000121867
0.000121454
0.000121073
0.000120681
0.0001203
0.000119866
0.000119485
0.000119093
0.000118701
0.000118331
0.000117971
0.0001176
0.000117251
0.000116891
0.000116562
0.000116245
0.000115969
0.000115662
0.000115408
0.000115133
0.000114889
0.000114656
0.000114477
0.000114328
0.00011418
0.000114042
0.000113958
0.000113884
0.00011382
0.00011382
0.000113809
0.000113841
0.000113884
0.000113958
0.000114064
0.00011418
0.000114339
0.000114487
0.000114678
0.000114911
0.000115122
0.000115387
0.000115641
0.000115938
0.000116266
0.000116573
0.000116922
0.000117261
0.000117632
0.000117971
0.000118373
0.000118733
0.000119125
0.000119506
0.000119908
0.0001203
0.000120681
0.000121073
0.000121454
0.000121835
0.000122227
0.000122608
0.000122936
0.000123296
0.000123624
0.000123942
0.000124239
0.000124524
0.0001248
0.000125054
0.000125297
0.00012552
0.000125689
0.000125869
0.000125996
0.000126113
0.000126218
0.000126293
0.000126346
0.000126367
0.000130792
0.000130761
0.000130718
0.000130612
0.000130538
0.00013039
0.000130263
0.000130094
0.000129893
0.00012966
0.000129448
0.000129183
0.000128929
0.000128611
0.000128304
0.000127966
0.000127616
0.000127267
0.000126907
0.000126526
0.000126134
0.000125731
0.000125329
0.000124927
0.000124503
0.00012409
0.000123699
0.000123296
0.000122873
0.000122481
0.00012211
0.00012174
0.000121369
0.00012102
0.00012067
0.000120321
0.000120014
0.000119728
0.00011941
0.000119178
0.000118923
0.000118712
0.000118521
0.000118331
0.000118182
0.000118055
0.000117949
0.000117896
0.000117854
0.000117822
0.000117822
0.000117833
0.000117886
0.000117971
0.000118076
0.000118203
0.000118341
0.000118542
0.000118743
0.000118945
0.000119188
0.000119442
0.000119728
0.000120035
0.000120342
0.000120681
0.000121009
0.000121369
0.00012175
0.000122132
0.000122492
0.000122894
0.000123307
0.00012372
0.000124112
0.000124503
0.000124916
0.000125319
0.000125721
0.000126113
0.000126515
0.000126886
0.000127277
0.000127637
0.000127955
0.000128294
0.000128601
0.000128908
0.000129204
0.000129469
0.000129713
0.000129924
0.000130115
0.000130284
0.000130432
0.00013057
0.000130655
0.00013074
0.000130782
0.000130814
0.000134689
0.000134668
0.000134625
0.000134541
0.000134456
0.000134318
0.00013417
0.000133979
0.000133789
0.000133556
0.000133334
0.000133069
0.000132794
0.000132476
0.000132148
0.000131788
0.000131449
0.0001311
0.000130708
0.000130305
0.000129893
0.000129501
0.000129077
0.000128654
0.000128241
0.000127817
0.000127415
0.000126991
0.000126578
0.000126176
0.000125763
0.000125382
0.00012499
0.000124609
0.00012427
0.000123932
0.000123593
0.000123286
0.000122989
0.000122714
0.000122513
0.00012229
0.000122079
0.000121899
0.00012175
0.000121602
0.000121496
0.000121422
0.00012138
0.000121359
0.000121348
0.000121369
0.000121422
0.000121486
0.000121613
0.00012174
0.000121899
0.000122079
0.00012229
0.000122513
0.000122777
0.000123042
0.000123328
0.000123635
0.000123963
0.000124281
0.00012463
0.000125011
0.000125371
0.000125774
0.000126166
0.000126578
0.000126981
0.000127426
0.000127828
0.000128251
0.000128675
0.000129088
0.000129511
0.000129914
0.000130305
0.000130687
0.000131068
0.000131438
0.000131798
0.000132137
0.000132476
0.000132783
0.000133079
0.000133355
0.000133598
0.000133821
0.000134032
0.000134191
0.00013435
0.000134488
0.000134594
0.000134678
0.000134721
0.000134742
0.000138098
0.000138066
0.000138003
0.00013795
0.000137833
0.000137706
0.000137548
0.000137357
0.000137135
0.000136933
0.000136679
0.000136425
0.000136118
0.000135801
0.000135472
0.000135134
0.000134752
0.000134371
0.00013399
0.000133588
0.000133164
0.000132751
0.000132338
0.000131904
0.000131449
0.000131036
0.000130612
0.000130189
0.000129787
0.000129363
0.000128918
0.000128505
0.000128124
0.000127764
0.000127404
0.000127055
0.000126716
0.00012642
0.000126113
0.000125827
0.000125583
0.000125361
0.00012516
0.000124969
0.0001248
0.000124694
0.000124577
0.000124482
0.00012445
0.000124408
0.000124408
0.000124429
0.000124482
0.000124556
0.000124683
0.000124831
0.00012499
0.00012517
0.000125393
0.000125604
0.000125869
0.000126144
0.000126451
0.000126758
0.000127087
0.000127415
0.000127796
0.000128156
0.000128527
0.00012894
0.000129363
0.000129787
0.00013021
0.000130634
0.000131068
0.000131502
0.000131947
0.000132381
0.000132783
0.000133207
0.000133619
0.000134001
0.000134382
0.000134752
0.000135112
0.000135494
0.000135853
0.000136139
0.000136446
0.000136722
0.000136955
0.000137177
0.000137378
0.000137569
0.000137728
0.000137865
0.000137992
0.000138066
0.000138119
0.000138151
0.000140978
0.000140936
0.000140862
0.000140798
0.000140671
0.000140565
0.000140353
0.000140184
0.000139972
0.00013976
0.000139506
0.000139199
0.000138903
0.000138596
0.000138246
0.000137929
0.000137548
0.000137135
0.000136743
0.000136351
0.000135917
0.000135504
0.00013507
0.000134615
0.00013417
0.000133736
0.000133302
0.000132857
0.000132434
0.00013201
0.000131576
0.000131163
0.000130782
0.000130401
0.00013002
0.00012967
0.000129342
0.000128993
0.000128717
0.000128421
0.000128177
0.000127944
0.000127733
0.000127542
0.000127404
0.000127256
0.000127161
0.000127066
0.000127023
0.000126981
0.00012697
0.000127002
0.000127055
0.00012715
0.000127267
0.000127415
0.000127574
0.000127764
0.000127955
0.000128198
0.000128453
0.000128738
0.000129035
0.000129353
0.000129691
0.000130041
0.000130401
0.000130792
0.000131195
0.000131608
0.000132021
0.000132444
0.000132899
0.000133312
0.000133747
0.000134191
0.000134646
0.000135081
0.000135515
0.000135949
0.000136351
0.000136764
0.000137177
0.000137526
0.000137929
0.000138268
0.000138606
0.000138935
0.000139231
0.000139528
0.000139782
0.000140004
0.000140205
0.000140417
0.000140576
0.000140724
0.000140819
0.000140904
0.000140967
0.000140989
0.000143254
0.000143223
0.00014317
0.000143085
0.000142969
0.00014282
0.000142672
0.000142471
0.000142249
0.000142026
0.00014174
0.000141465
0.000141158
0.00014083
0.000140491
0.000140131
0.00013976
0.000139369
0.000138956
0.000138532
0.000138151
0.000137706
0.000137272
0.000136817
0.000136383
0.000135906
0.000135451
0.000135017
0.000134551
0.000134138
0.000133736
0.000133323
0.00013291
0.000132508
0.000132116
0.000131777
0.000131428
0.00013111
0.000130782
0.000130517
0.000130231
0.000130009
0.000129808
0.000129649
0.000129458
0.000129353
0.000129204
0.00012913
0.000129067
0.000129045
0.000129045
0.000129077
0.000129141
0.000129236
0.000129331
0.000129448
0.000129638
0.000129829
0.000130041
0.000130284
0.000130538
0.000130835
0.000131121
0.000131449
0.000131788
0.000132158
0.000132539
0.000132921
0.000133334
0.000133736
0.000134159
0.000134604
0.000135028
0.000135483
0.000135928
0.000136383
0.000136828
0.000137293
0.000137717
0.000138151
0.000138564
0.000138998
0.00013939
0.000139792
0.000140173
0.000140533
0.00014084
0.00014119
0.000141497
0.000141783
0.000142047
0.000142291
0.000142513
0.000142704
0.000142873
0.000143022
0.000143117
0.000143191
0.000143254
0.000143276
0.00014498
0.000144949
0.000144906
0.000144821
0.000144673
0.000144546
0.000144387
0.000144218
0.000143953
0.000143699
0.000143445
0.000143159
0.000142842
0.000142524
0.000142174
0.000141814
0.000141433
0.000141063
0.000140629
0.000140226
0.000139824
0.000139379
0.000138945
0.00013849
0.000138013
0.000137558
0.000137082
0.000136658
0.000136213
0.000135758
0.000135345
0.000134922
0.000134498
0.000134117
0.000133725
0.000133355
0.000133016
0.000132677
0.000132391
0.000132116
0.000131851
0.000131587
0.000131385
0.000131184
0.000131036
0.000130888
0.000130782
0.000130708
0.000130634
0.000130602
0.000130602
0.000130644
0.000130697
0.000130782
0.000130877
0.000131025
0.000131174
0.000131375
0.000131608
0.00013183
0.000132084
0.000132359
0.000132709
0.000133027
0.000133376
0.000133757
0.000134128
0.00013453
0.000134954
0.000135356
0.000135779
0.000136245
0.000136669
0.000137124
0.00013759
0.000138024
0.000138479
0.000138913
0.000139369
0.000139813
0.000140237
0.00014065
0.000141052
0.000141465
0.000141846
0.000142196
0.000142566
0.000142894
0.000143223
0.000143477
0.000143773
0.000144006
0.000144239
0.000144419
0.000144589
0.000144705
0.000144843
0.000144927
0.000144991
0.000145012
0.000146145
0.000146124
0.00014606
0.000145954
0.000145848
0.000145711
0.000145541
0.00014533
0.000145118
0.000144853
0.000144589
0.000144292
0.000143996
0.000143657
0.000143339
0.000142937
0.000142587
0.000142174
0.000141783
0.000141349
0.000140904
0.000140502
0.000140025
0.00013958
0.000139115
0.000138659
0.000138204
0.000137749
0.000137293
0.00013687
0.000136415
0.000135981
0.000135589
0.000135176
0.000134805
0.000134435
0.000134075
0.000133747
0.000133471
0.000133175
0.000132878
0.000132645
0.000132423
0.000132232
0.000132063
0.000131925
0.00013183
0.000131756
0.000131682
0.00013165
0.000131661
0.000131682
0.000131735
0.000131798
0.000131925
0.000132063
0.000132222
0.000132423
0.000132635
0.000132889
0.000133143
0.000133429
0.000133747
0.000134075
0.000134445
0.000134805
0.000135186
0.00013561
0.000136012
0.000136436
0.000136881
0.000137315
0.00013778
0.000138225
0.000138691
0.000139136
0.00013957
0.000140025
0.00014048
0.000140904
0.000141359
0.000141783
0.000142174
0.000142577
0.000142958
0.000143329
0.000143699
0.000144038
0.000144345
0.000144631
0.000144906
0.000145171
0.000145351
0.000145573
0.000145743
0.000145891
0.000146007
0.000146092
0.000146134
0.000146166
0.000146717
0.000146696
0.000146632
0.000146558
0.000146452
0.000146293
0.000146124
0.000145912
0.0001457
0.000145436
0.00014515
0.000144864
0.000144578
0.00014425
0.000143879
0.00014353
0.000143149
0.000142746
0.000142354
0.00014191
0.000141455
0.00014102
0.000140597
0.00014012
0.000139676
0.000139199
0.000138755
0.000138289
0.000137876
0.000137399
0.000136976
0.000136542
0.000136108
0.000135705
0.000135345
0.000134954
0.000134615
0.000134297
0.000133979
0.000133683
0.000133429
0.000133175
0.000132952
0.000132762
0.000132603
0.000132465
0.000132359
0.000132243
0.000132201
0.000132169
0.00013219
0.000132201
0.000132264
0.000132338
0.000132444
0.000132592
0.000132783
0.000132963
0.000133154
0.000133418
0.000133683
0.000133969
0.000134265
0.000134604
0.000134964