/*--------------------------------*- C++ -*----------------------------------*\
  =========                 |
  \\      /  F ield         | OpenFOAM: The Open Source CFD Toolbox
   \\    /   O peration     | Website:  https://openfoam.org
    \\  /    A nd           | Version:  7
     \\/     M anipulation  |
\*---------------------------------------------------------------------------*/
FoamFile
{
    version     2.0;
    format      ascii;
    class       volScalarField;
    location    "0.046";
    object      gradTx;
}
// * * * * * * * * * * * * * * * * * * * * * * * * * * * * * * * * * * * * * //

dimensions      [0 -1 0 1 0 0 0];

internalField   nonuniform List<scalar> 
10000
(
4.61633e-06
1.38066e-05
2.29546e-05
3.20073e-05
4.09223e-05
4.97102e-05
5.8297e-05
6.66403e-05
7.47401e-05
8.25328e-05
8.99973e-05
9.70912e-05
0.000103793
0.000110135
0.000116012
0.000121433
0.000126367
0.000130824
0.000134752
0.00013814
0.000140978
0.000143265
0.000144991
0.000146145
0.000146727
0.000146706
0.000146156
0.000145012
0.000143276
0.000140978
0.000138119
0.000134742
0.000130771
0.000126356
0.000121422
0.000115991
0.000110114
0.000103814
9.71017e-05
8.99973e-05
8.25116e-05
7.47401e-05
6.66509e-05
5.83182e-05
4.97314e-05
4.09752e-05
3.20284e-05
2.30075e-05
1.3849e-05
4.65868e-06
-4.57398e-06
-1.37643e-05
-2.29122e-05
-3.19649e-05
-4.09223e-05
-4.96679e-05
-5.82123e-05
-6.65662e-05
-7.46448e-05
-8.24269e-05
-8.9902e-05
-9.69853e-05
-0.00010373
-0.000110061
-0.000115916
-0.000121348
-0.000126303
-0.00013074
-0.000134678
-0.000138056
-0.000140904
-0.000143202
-0.000144927
-0.000146092
-0.000146674
-0.000146664
-0.00014606
-0.000144917
-0.000143223
-0.000140915
-0.000138066
-0.000134668
-0.00013075
-0.000126335
-0.00012138
-0.000115969
-0.000110104
-0.000103804
-9.70594e-05
-8.99549e-05
-8.24798e-05
-7.46871e-05
-6.66086e-05
-5.8297e-05
-4.97208e-05
-4.09435e-05
-3.20284e-05
-2.29758e-05
-1.38172e-05
-4.61633e-06
4.60574e-06
1.38172e-05
2.29546e-05
3.20178e-05
4.09117e-05
4.96997e-05
5.83076e-05
6.66403e-05
7.46977e-05
8.25222e-05
8.99549e-05
9.707e-05
0.000103793
0.000110104
0.000116001
0.000121401
0.000126346
0.000130792
0.000134731
0.000138119
0.000140946
0.000143233
0.000144959
0.000146124
0.000146717
0.000146664
0.000146134
0.00014498
0.000143233
0.000140967
0.000138077
0.000134699
0.00013075
0.000126346
0.000121401
0.00011598
0.000110093
0.000103793
9.70594e-05
8.99761e-05
8.2501e-05
7.47295e-05
6.66403e-05
5.83076e-05
4.97314e-05
4.09646e-05
3.20178e-05
2.30075e-05
1.38384e-05
4.66927e-06
-4.57398e-06
-1.37643e-05
-2.29122e-05
-3.19543e-05
-4.08905e-05
-4.96467e-05
-5.82335e-05
-6.65556e-05
-7.46342e-05
-8.24375e-05
-8.98702e-05
-9.69747e-05
-0.000103698
-0.00011003
-0.000115895
-0.000121337
-0.000126282
-0.000130718
-0.000134625
-0.000138024
-0.000140883
-0.00014318
-0.000144906
-0.00014606
-0.000146621
-0.000146621
-0.000146071
-0.000144896
-0.000143159
-0.000140893
-0.000138045
-0.000134668
-0.000130729
-0.000126293
-0.000121359
-0.000115938
-0.000110083
-0.000103772
-9.70382e-05
-8.99337e-05
-8.24692e-05
-7.46871e-05
-6.66086e-05
-5.82653e-05
-4.97102e-05
-4.0954e-05
-3.20073e-05
-2.29758e-05
-1.38278e-05
-4.60574e-06
4.58457e-06
1.3796e-05
2.29652e-05
3.19861e-05
4.09011e-05
4.96997e-05
5.8297e-05
6.66086e-05
7.4666e-05
8.24587e-05
8.99231e-05
9.70488e-05
0.000103751
0.000110061
0.000115927
0.000121359
0.000126314
0.000130761
0.000134668
0.000138035
0.000140893
0.00014318
0.000144927
0.00014606
0.000146653
0.000146643
0.00014606
0.000144917
0.000143202
0.000140893
0.000138013
0.000134636
0.000130708
0.000126271
0.000121348
0.000115948
0.00011004
0.00010374
9.70382e-05
8.99443e-05
8.24798e-05
7.46871e-05
6.66191e-05
5.82865e-05
4.97102e-05
4.09435e-05
3.20284e-05
2.29864e-05
1.3849e-05
4.63751e-06
-4.57398e-06
-1.37537e-05
-2.28805e-05
-3.19437e-05
-4.08905e-05
-4.96361e-05
-5.82018e-05
-6.65344e-05
-7.4613e-05
-8.2374e-05
-8.98384e-05
-9.69535e-05
-0.000103677
-0.000109977
-0.000115864
-0.000121274
-0.000126208
-0.000130665
-0.000134583
-0.000137982
-0.000140819
-0.000143138
-0.000144843
-0.000145997
-0.00014659
-0.000146579
-0.000145986
-0.000144843
-0.000143117
-0.00014083
-0.000137992
-0.000134594
-0.000130676
-0.000126261
-0.000121295
-0.000115906
-0.000110051
-0.00010373
-9.69853e-05
-8.98914e-05
-8.24269e-05
-7.46554e-05
-6.65874e-05
-5.82547e-05
-4.96891e-05
-4.09223e-05
-3.20073e-05
-2.29546e-05
-1.38278e-05
-4.59515e-06
4.60574e-06
1.37855e-05
2.29228e-05
3.19755e-05
4.08905e-05
4.96679e-05
5.82229e-05
6.65768e-05
7.46448e-05
8.24163e-05
8.98596e-05
9.69641e-05
0.000103687
0.000110019
0.000115874
0.000121306
0.000126229
0.000130676
0.000134583
0.000137939
0.000140819
0.000143117
0.000144811
0.000145976
0.000146579
0.000146558
0.000145986
0.000144821
0.000143117
0.00014083
0.000137939
0.000134562
0.000130634
0.000126187
0.000121263
0.000115853
0.000109966
0.000103687
9.69747e-05
8.9902e-05
8.24481e-05
7.46448e-05
6.65874e-05
5.82441e-05
4.96785e-05
4.09329e-05
3.20073e-05
2.29652e-05
1.38278e-05
4.65868e-06
-4.57398e-06
-1.37643e-05
-2.28699e-05
-3.19226e-05
-4.08482e-05
-4.9615e-05
-5.817e-05
-6.65027e-05
-7.45601e-05
-8.2374e-05
-8.97749e-05
-9.68688e-05
-0.000103613
-0.000109924
-0.000115779
-0.00012121
-0.000126155
-0.000130581
-0.000134498
-0.000137918
-0.000140745
-0.000143032
-0.000144758
-0.000145891
-0.000146516
-0.000146494
-0.000145923
-0.000144769
-0.000143043
-0.000140745
-0.000137897
-0.000134519
-0.000130581
-0.000126187
-0.000121274
-0.000115832
-0.000109945
-0.000103656
-9.69217e-05
-8.98384e-05
-8.23951e-05
-7.46236e-05
-6.65344e-05
-5.82229e-05
-4.96573e-05
-4.09223e-05
-3.19967e-05
-2.2944e-05
-1.3796e-05
-4.59515e-06
4.58457e-06
1.3796e-05
2.29017e-05
3.19755e-05
4.08588e-05
4.96255e-05
5.81594e-05
6.65133e-05
7.46024e-05
8.23634e-05
8.97855e-05
9.68794e-05
0.000103634
0.000109924
0.000115779
0.00012121
0.000126113
0.00013057
0.000134477
0.000137844
0.000140724
0.00014299
0.000144716
0.000145859
0.000146463
0.000146431
0.000145859
0.000144726
0.000142979
0.000140713
0.000137855
0.000134456
0.000130528
0.000126102
0.000121157
0.000115758
0.000109881
0.000103624
9.69112e-05
8.98278e-05
8.23634e-05
7.4613e-05
6.65344e-05
5.81912e-05
4.96573e-05
4.08799e-05
3.20073e-05
2.2944e-05
1.3796e-05
4.64809e-06
-4.5528e-06
-1.37431e-05
-2.28911e-05
-3.19014e-05
-4.08164e-05
-4.95938e-05
-5.8117e-05
-6.64286e-05
-7.45071e-05
-8.22893e-05
-8.9722e-05
-9.68053e-05
-0.000103518
-0.000109828
-0.000115684
-0.000121126
-0.00012607
-0.000130496
-0.000134392
-0.00013777
-0.000140639
-0.000142926
-0.000144631
-0.000145785
-0.00014641
-0.00014641
-0.000145785
-0.000144673
-0.000142926
-0.000140629
-0.000137802
-0.000134403
-0.000130496
-0.000126091
-0.000121157
-0.000115736
-0.000109871
-0.000103582
-9.68476e-05
-8.97749e-05
-8.22998e-05
-7.45601e-05
-6.64921e-05
-5.81912e-05
-4.96361e-05
-4.08693e-05
-3.19649e-05
-2.29228e-05
-1.37855e-05
-4.60574e-06
4.58457e-06
1.37643e-05
2.28911e-05
3.19331e-05
4.08376e-05
4.9562e-05
5.8117e-05
6.64497e-05
7.45177e-05
8.22575e-05
8.97114e-05
9.68159e-05
0.000103529
0.000109828
0.000115662
0.000121083
0.000125986
0.000130432
0.000134339
0.000137738
0.000140565
0.000142852
0.000144589
0.000145732
0.000146293
0.000146293
0.000145732
0.000144589
0.000142842
0.000140555
0.000137738
0.000134329
0.000130401
0.000125954
0.000121041
0.000115652
0.000109786
0.000103529
9.6837e-05
8.97326e-05
8.22998e-05
7.45071e-05
6.64603e-05
5.81594e-05
4.96044e-05
4.08482e-05
3.19437e-05
2.29228e-05
1.38066e-05
4.63751e-06
-4.5528e-06
-1.37113e-05
-2.28487e-05
-3.18908e-05
-4.07846e-05
-4.95408e-05
-5.80641e-05
-6.63756e-05
-7.44436e-05
-8.2194e-05
-8.96161e-05
-9.67206e-05
-0.000103454
-0.000109723
-0.000115578
-0.000120999
-0.000125922
-0.000130358
-0.000134297
-0.000137653
-0.000140512
-0.000142767
-0.000144493
-0.000145647
-0.000146251
-0.000146272
-0.000145658
-0.000144504
-0.000142799
-0.000140512
-0.000137653
-0.000134276
-0.00013038
-0.000125986
-0.000121041
-0.000115609
-0.000109744
-0.000103486
-9.67523e-05
-8.96902e-05
-8.22363e-05
-7.44648e-05
-6.64286e-05
-5.81276e-05
-4.96044e-05
-4.08376e-05
-3.1912e-05
-2.29017e-05
-1.37749e-05
-4.60574e-06
4.60574e-06
1.37643e-05
2.28487e-05
3.18802e-05
4.07952e-05
4.95408e-05
5.80429e-05
6.63862e-05
7.44118e-05
8.21304e-05
8.96161e-05
9.66994e-05
0.000103412
0.000109691
0.000115546
0.000120935
0.000125848
0.000130274
0.000134191
0.000137579
0.000140417
0.000142704
0.000144409
0.000145541
0.000146124
0.000146124
0.000145573
0.000144419
0.000142693
0.000140385
0.000137558
0.000134191
0.000130252
0.000125816
0.000120893
0.000115525
0.00010967
0.000103391
9.671e-05
8.96373e-05
8.22045e-05
7.4433e-05
6.63862e-05
5.80959e-05
4.95408e-05
4.07952e-05
3.1912e-05
2.29017e-05
1.37855e-05
4.61633e-06
-4.5528e-06
-1.37008e-05
-2.28064e-05
-3.18273e-05
-4.07423e-05
-4.94773e-05
-5.80006e-05
-6.62909e-05
-7.43483e-05
-8.21198e-05
-8.95208e-05
-9.66041e-05
-0.000103327
-0.000109617
-0.000115451
-0.00012084
-0.000125774
-0.000130221
-0.000134117
-0.000137516
-0.000140332
-0.000142609
-0.000144334
-0.000145499
-0.000146071
-0.000146092
-0.000145499
-0.000144366
-0.000142619
-0.000140332
-0.000137495
-0.000134138
-0.000130242
-0.000125827
-0.000120893
-0.000115482
-0.000109617
-0.00010337
-9.6657e-05
-8.95737e-05
-8.21516e-05
-7.43907e-05
-6.63544e-05
-5.80535e-05
-4.95197e-05
-4.0774e-05
-3.19014e-05
-2.28699e-05
-1.37643e-05
-4.60574e-06
4.60574e-06
1.37431e-05
2.28381e-05
3.1859e-05
4.07211e-05
4.94561e-05
5.79688e-05
6.62909e-05
7.43271e-05
8.20563e-05
8.94679e-05
9.65723e-05
0.000103274
0.000109543
0.000115387
0.000120755
0.000125679
0.000130115
0.000134022
0.000137421
0.000140226
0.000142482
0.000144207
0.000145361
0.000145944
0.000145923
0.000145351
0.000144218
0.000142503
0.000140216
0.000137389
0.000134001
0.000130083
0.000125647
0.000120734
0.000115376
0.000109543
0.000103264
9.65723e-05
8.94996e-05
8.20775e-05
7.43589e-05
6.63015e-05
5.80006e-05
4.94879e-05
4.07529e-05
3.1859e-05
2.28487e-05
1.37643e-05
4.62692e-06
-4.54221e-06
-1.36902e-05
-2.27852e-05
-3.17955e-05
-4.06788e-05
-4.94032e-05
-5.79265e-05
-6.62168e-05
-7.4253e-05
-8.20034e-05
-8.94043e-05
-9.64876e-05
-0.000103169
-0.000109479
-0.000115292
-0.000120681
-0.000125615
-0.00013003
-0.000133958
-0.000137293
-0.000140163
-0.00014245
-0.000144123
-0.000145309
-0.00014588
-0.00014587
-0.000145309
-0.000144165
-0.000142439
-0.000140152
-0.000137315
-0.000133958
-0.000130062
-0.000125647
-0.000120734
-0.000115334
-0.000109511
-0.000103222
-9.653e-05
-8.94573e-05
-8.2014e-05
-7.4306e-05
-6.62592e-05
-5.799e-05
-4.9435e-05
-4.07317e-05
-3.1859e-05
-2.28275e-05
-1.37537e-05
-4.59515e-06
4.57398e-06
1.37008e-05
2.27852e-05
3.18061e-05
4.06682e-05
4.93714e-05
5.78947e-05
6.6185e-05
7.42107e-05
8.19398e-05
8.93726e-05
9.64135e-05
0.000103116
0.000109384
0.000115186
0.000120575
0.000125499
0.000129935
0.000133821
0.000137177
0.000140025
0.00014228
0.000143996
0.000145129
0.000145721
0.0001457
0.000145139
0.000144006
0.000142291
0.000140015
0.000137177
0.000133799
0.000129882
0.000125456
0.000120575
0.000115196
0.000109373
0.000103094
9.64347e-05
8.9362e-05
8.1961e-05
7.42213e-05
6.6185e-05
5.79159e-05
4.94244e-05
4.06893e-05
3.18061e-05
2.28381e-05
1.37537e-05
4.59515e-06
-4.53163e-06
-1.36796e-05
-2.27322e-05
-3.17426e-05
-4.06258e-05
-4.93079e-05
-5.78418e-05
-6.61003e-05
-7.41577e-05
-8.18657e-05
-8.92984e-05
-9.63606e-05
-0.00010302
-0.000109299
-0.000115091
-0.000120501
-0.000125414
-0.00012985
-0.000133736
-0.000137113
-0.000139951
-0.000142227
-0.000143943
-0.000145076
-0.000145668
-0.000145658
-0.000145076
-0.000143943
-0.000142206
-0.00013994
-0.000137113
-0.000133757
-0.00012984
-0.000125467
-0.000120554
-0.000115165
-0.000109341
-0.000103084
-9.63818e-05
-8.93196e-05
-8.19187e-05
-7.41789e-05
-6.61533e-05
-5.79053e-05
-4.9382e-05
-4.06788e-05
-3.17955e-05
-2.28064e-05
-1.37219e-05
-4.56339e-06
4.58457e-06
1.37113e-05
2.27428e-05
3.17531e-05
4.06152e-05
4.92656e-05
5.77888e-05
6.60897e-05
7.40836e-05
8.18022e-05
8.9182e-05
9.62653e-05
0.000102925
0.000109193
0.000114995
0.000120385
0.000125297
0.000129723
0.000133598
0.000136944
0.000139792
0.000142058
0.000143741
0.000144896
0.000145467
0.000145467
0.000144896
0.000143773
0.000142069
0.00013976
0.000136933
0.000133556
0.00012966
0.000125276
0.000120363
0.000115006
0.000109204
0.000102915
9.62865e-05
8.91926e-05
8.18128e-05
7.41048e-05
6.60686e-05
5.78206e-05
4.93291e-05
4.06364e-05
3.17531e-05
2.27746e-05
1.37219e-05
4.62692e-06
-4.52104e-06
-1.3669e-05
-2.27111e-05
-3.16684e-05
-4.05411e-05
-4.92444e-05
-5.77359e-05
-6.6005e-05
-7.40095e-05
-8.17387e-05
-8.91396e-05
-9.61912e-05
-0.000102851
-0.000109108
-0.000114921
-0.0001203
-0.000125223
-0.000129607
-0.000133503
-0.000136881
-0.000139707
-0.000141994
-0.000143731
-0.000144821
-0.000145425
-0.000145414
-0.000144832
-0.000143689
-0.000141984
-0.000139697
-0.000136891
-0.000133535
-0.000129628
-0.000125223
-0.000120363
-0.000114974
-0.000109161
-0.000102893
-9.62229e-05
-8.9182e-05
-8.17704e-05
-7.4073e-05
-6.60368e-05
-5.78206e-05
-4.93079e-05
-4.06046e-05
-3.17531e-05
-2.2764e-05
-1.36902e-05
-4.5528e-06
4.56339e-06
1.3669e-05
2.27428e-05
3.17002e-05
4.05305e-05
4.91914e-05
5.76935e-05
6.59521e-05
7.39566e-05
8.16752e-05
8.90126e-05
9.60535e-05
0.000102735
0.000108981
0.000114784
0.000120162
0.000125054
0.00012948
0.000133355
0.00013669
0.000139528
0.000141793
0.000143498
0.000144631
0.000145203
0.000145171
0.000144641
0.000143498
0.000141793
0.000139517
0.000136679
0.000133302
0.000129437
0.000125043
0.000120162
0.000114815
0.000108981
0.000102735
9.60853e-05
8.90338e-05
8.16646e-05
7.39354e-05
6.59627e-05
5.77147e-05
4.92232e-05
4.05517e-05
3.17108e-05
2.27534e-05
1.37113e-05
4.60574e-06
-4.51045e-06
-1.36372e-05
-2.26793e-05
-3.16155e-05
-4.04564e-05
-4.91597e-05
-5.76194e-05
-6.5878e-05
-7.38719e-05
-8.15904e-05
-8.89914e-05
-9.60112e-05
-0.00010266
-0.000108907
-0.000114741
-0.000120088
-0.000124969
-0.000129374
-0.000133249
-0.000136616
-0.000139453
-0.000141719
-0.000143456
-0.000144567
-0.00014516
-0.000145129
-0.000144567
-0.000143434
-0.000141709
-0.000139453
-0.000136637
-0.000133259
-0.000129395
-0.000125011
-0.00012012
-0.000114752
-0.000108971
-0.000102703
-9.60641e-05
-8.90232e-05
-8.16222e-05
-7.39248e-05
-6.59309e-05
-5.77147e-05
-4.92126e-05
-4.05199e-05
-3.17002e-05
-2.27111e-05
-1.36478e-05
-4.56339e-06
4.57398e-06
1.36584e-05
2.26687e-05
3.16367e-05
4.04458e-05
4.91279e-05
5.75771e-05
6.58145e-05
7.38083e-05
8.14846e-05
8.88538e-05
9.58735e-05
0.000102523
0.000108748
0.000114572
0.000119919
0.000124779
0.000129183
0.000133079
0.000136415
0.000139273
0.000141507
0.000143212
0.000144345
0.000144917
0.000144906
0.000144345
0.000143212
0.000141497
0.00013922
0.000136404
0.000133048
0.000129183
0.000124789
0.000119929
0.000114582
0.00010877
0.000102523
9.5863e-05
8.88643e-05
8.14846e-05
7.38083e-05
6.58145e-05
5.75982e-05
4.91385e-05
4.0467e-05
3.16473e-05
2.27111e-05
1.36902e-05
4.60574e-06
-4.51045e-06
-1.35843e-05
-2.2637e-05
-3.15732e-05
-4.03823e-05
-4.90432e-05
-5.75135e-05
-6.57403e-05
-7.37236e-05
-8.1421e-05
-8.88114e-05
-9.58206e-05
-0.000102459
-0.000108696
-0.000114519
-0.000119845
-0.000124726
-0.00012912
-0.000132974
-0.000136341
-0.000139146
-0.000141455
-0.000143159
-0.000144271
-0.000144832
-0.000144853
-0.000144292
-0.000143159
-0.000141423
-0.000139146
-0.000136362
-0.000133005
-0.00012913
-0.000124779
-0.000119866
-0.000114529
-0.000108738
-0.000102512
-9.5863e-05
-8.88432e-05
-8.14634e-05
-7.3766e-05
-6.58145e-05
-5.75982e-05
-4.91067e-05
-4.04458e-05
-3.16261e-05
-2.26687e-05
-1.36372e-05
-4.5528e-06
4.54221e-06
1.36161e-05
2.2637e-05
3.1552e-05
4.03929e-05
4.9022e-05
5.74606e-05
6.56662e-05
7.36389e-05
8.13152e-05
8.86632e-05
9.56724e-05
0.000102311
0.000108537
0.000114307
0.000119643
0.000124524
0.000128897
0.000132772
0.000136129
0.000138956
0.000141211
0.000142894
0.000144027
0.00014461
0.00014461
0.000144038
0.000142873
0.00014119
0.000138924
0.000136118
0.000132772
0.000128929
0.000124524
0.000119675
0.000114307
0.000108516
0.000102311
9.56618e-05
8.86632e-05
8.13152e-05
7.36283e-05
6.56768e-05
5.74818e-05
4.9022e-05
4.03929e-05
3.16049e-05
2.26581e-05
1.36584e-05
4.59515e-06
-4.49986e-06
-1.35737e-05
-2.25628e-05
-3.15096e-05
-4.02976e-05
-4.89267e-05
-5.74077e-05
-6.55921e-05
-7.35754e-05
-8.1241e-05
-8.86102e-05
-9.56088e-05
-0.000102237
-0.000108473
-0.000114265
-0.000119601
-0.000124461
-0.000128823
-0.000132698
-0.000136055
-0.000138839
-0.000141126
-0.000142842
-0.000143953
-0.000144536
-0.000144514
-0.000143964
-0.000142852
-0.000141126
-0.000138882
-0.000136055
-0.000132719
-0.000128855
-0.000124493
-0.000119633
-0.000114286
-0.000108494
-0.000102279
-9.56512e-05
-8.86632e-05
-8.1294e-05
-7.36283e-05
-6.56662e-05
-5.74712e-05
-4.90009e-05
-4.03611e-05
-3.15414e-05
-2.26052e-05
-1.36055e-05
-4.54221e-06
4.53163e-06
1.36055e-05
2.25734e-05
3.14884e-05
4.02552e-05
4.89162e-05
5.73335e-05
6.55286e-05
7.34589e-05
8.11246e-05
8.8462e-05
9.54712e-05
0.000102067
0.000108272
0.000114042
0.0001194
0.000124217
0.000128601
0.000132465
0.000135822
0.000138606
0.000140851
0.000142598
0.000143731
0.000144281
0.000144281
0.000143689
0.000142545
0.000140872
0.000138596
0.00013579
0.000132465
0.000128633
0.000124249
0.000119389
0.000114032
0.000108272
0.000102078
9.54394e-05
8.8462e-05
8.11246e-05
7.34589e-05
6.55286e-05
5.73335e-05
4.89267e-05
4.03082e-05
3.1499e-05
2.26158e-05
1.36372e-05
4.58457e-06
-4.48927e-06
-1.35314e-05
-2.25311e-05
-3.14249e-05
-4.02129e-05
-4.88209e-05
-5.72383e-05
-6.54545e-05
-7.3406e-05
-8.10611e-05
-8.83879e-05
-9.53971e-05
-0.000102015
-0.000108198
-0.000114011
-0.000119315
-0.000124164
-0.000128548
-0.00013237
-0.000135716
-0.000138532
-0.000140809
-0.000142503
-0.000143625
-0.000144207
-0.000144218
-0.000143625
-0.000142492
-0.000140798
-0.000138575
-0.000135737
-0.000132402
-0.000128548
-0.000124207
-0.000119358
-0.000114021
-0.00010824
-0.000102057
-9.54288e-05
-8.84726e-05
-8.11246e-05
-7.34801e-05
-6.5518e-05
-5.7323e-05
-4.88844e-05
-4.02552e-05
-3.14779e-05
-2.25734e-05
-1.35525e-05
-4.53163e-06
4.51045e-06
1.35737e-05
2.25523e-05
3.13932e-05
4.01599e-05
4.87573e-05
5.71959e-05
6.53698e-05
7.33107e-05
8.09446e-05
8.82502e-05
9.52065e-05
0.000101792
0.000107997
0.000113788
0.000119093
0.000123921
0.000128283
0.000132169
0.000135472
0.000138246
0.000140523
0.000142227
0.000143382
0.000143943
0.000143943
0.000143339
0.000142196
0.000140523
0.000138268
0.000135472
0.000132137
0.000128315
0.000123932
0.000119093
0.000113767
0.000107997
0.000101824
9.52171e-05
8.82502e-05
8.09234e-05
7.33001e-05
6.53909e-05
5.71959e-05
4.87891e-05
4.02129e-05
3.14143e-05
2.25628e-05
1.35843e-05
4.57398e-06
-4.4681e-06
-1.34996e-05
-2.24887e-05
-3.13508e-05
-4.01176e-05
-4.86938e-05
-5.71218e-05
-6.52957e-05
-7.32154e-05
-8.08599e-05
-8.81867e-05
-9.5143e-05
-0.00010175
-0.000107933
-0.000113693
-0.00011904
-0.000123879
-0.00012823
-0.000132042
-0.000135366
-0.000138204
-0.00014047
-0.000142143
-0.000143276
-0.000143858
-0.000143847
-0.000143297
-0.000142153
-0.000140449
-0.000138204
-0.000135419
-0.000132084
-0.00012823
-0.0001239
-0.000119072
-0.000113746
-0.000107997
-0.000101792
-9.52065e-05
-8.82608e-05
-8.0934e-05
-7.32895e-05
-6.53592e-05
-5.71853e-05
-4.87785e-05
-4.01705e-05
-3.14037e-05
-2.24993e-05
-1.35419e-05
-4.49986e-06
4.52104e-06
1.35419e-05
2.24675e-05
3.13508e-05
4.00435e-05
4.86409e-05
5.70477e-05
6.52109e-05
7.30989e-05
8.07328e-05
8.80173e-05
9.49842e-05
0.00010157
0.000107721
0.000113471
0.000118775
0.000123603
0.000127955
0.000131809
0.000135134
0.000137897
0.000140152
0.000141857
0.00014299
0.000143583
0.000143561
0.000142969
0.000141846
0.000140163
0.000137918
0.000135134
0.000131809
0.000127966
0.000123635
0.000118775
0.000113471
0.0001077
0.00010157
9.49842e-05
8.80279e-05
8.07328e-05
7.31201e-05
6.52004e-05
5.70477e-05
4.86726e-05
4.00752e-05
3.13402e-05
2.24993e-05
1.35525e-05
4.54221e-06
-4.43634e-06
-1.34572e-05
-2.2404e-05
-3.12873e-05
-4.00223e-05
-4.85879e-05
-5.6963e-05
-6.51262e-05
-7.30354e-05
-8.06587e-05
-8.7922e-05
-9.48889e-05
-0.000101475
-0.000107668
-0.000113418
-0.000118701
-0.00012354
-0.000127891
-0.000131724
-0.000135049
-0.000137855
-0.000140099
-0.000141772
-0.000142916
-0.000143477
-0.000143477
-0.000142916
-0.000141762
-0.000140089
-0.000137865
-0.000135081
-0.000131756
-0.000127913
-0.000123572
-0.000118754
-0.000113449
-0.000107732
-0.000101549
-9.49736e-05
-8.80279e-05
-8.07117e-05
-7.31095e-05
-6.51792e-05
-5.70265e-05
-4.86515e-05
-4.00647e-05
-3.13402e-05
-2.2457e-05
-1.3489e-05
-4.49986e-06
4.49986e-06
1.34996e-05
2.2404e-05
3.12661e-05
3.99588e-05
4.85138e-05
5.68889e-05
6.50521e-05
7.29189e-05
8.04893e-05
8.77844e-05
9.47089e-05
0.000101295
0.000107457
0.000113174
0.000118447
0.000123275
0.000127595
0.000131449
0.000134763
0.000137526
0.000139782
0.000141476
0.000142609
0.00014318
0.00014317
0.000142577
0.000141476
0.000139803
0.000137558
0.000134784
0.000131438
0.000127616
0.000123286
0.000118458
0.000113185
0.000107436
0.000101273
9.47195e-05
8.77738e-05
8.05105e-05
7.28978e-05
6.50415e-05
5.69206e-05
4.85138e-05
3.99905e-05
3.12661e-05
2.2404e-05
1.35208e-05
4.5528e-06
-4.41516e-06
-1.34043e-05
-2.23511e-05
-3.12026e-05
-3.99164e-05
-4.84609e-05
-5.68253e-05
-6.49568e-05
-7.28237e-05
-8.04258e-05
-8.76997e-05
-9.46453e-05
-0.000101189
-0.000107361
-0.0001131
-0.000118394
-0.000123201
-0.000127542
-0.000131385
-0.000134678
-0.000137463
-0.000139729
-0.000141402
-0.000142524
-0.000143096
-0.000143085
-0.000142534
-0.000141412
-0.000139686
-0.000137484
-0.000134721
-0.000131407
-0.000127584
-0.000123243
-0.000118415
-0.000113164
-0.000107425
-0.000101284
-9.47195e-05
-8.77844e-05
-8.04999e-05
-7.28978e-05
-6.49992e-05
-5.68889e-05
-4.85244e-05
-3.99694e-05
-3.12343e-05
-2.23934e-05
-1.34572e-05
-4.49986e-06
4.47869e-06
1.34572e-05
2.23511e-05
3.11602e-05
3.98529e-05
4.83868e-05
5.67512e-05
6.48615e-05
7.27072e-05
8.02775e-05
8.75409e-05
9.44442e-05
0.000100998
0.00010716
0.000112857
0.000118129
0.000122926
0.000127246
0.000131089
0.000134392
0.000137145
0.000139369
0.000141073
0.000142217
0.000142778
0.000142736
0.000142206
0.000141063
0.0001394
0.000137177
0.000134414
0.000131089
0.000127267
0.000122936
0.000118119
0.000112867
0.000107128
0.000101009
9.44548e-05
8.74985e-05
8.0267e-05
7.27284e-05
6.4851e-05
5.67512e-05
4.83762e-05
3.98635e-05
3.11814e-05
2.23617e-05
1.34784e-05
4.5528e-06
-4.41516e-06
-1.33831e-05
-2.22876e-05
-3.11073e-05
-3.98e-05
-4.83232e-05
-5.66559e-05
-6.47663e-05
-7.26331e-05
-8.02034e-05
-8.74456e-05
-9.43806e-05
-0.000100913
-0.000107044
-0.000112782
-0.000118055
-0.000122873
-0.000127182
-0.000130983
-0.000134318
-0.000137092
-0.000139348
-0.000140999
-0.000142132
-0.000142683
-0.000142693
-0.000142143
-0.00014101
-0.000139305
-0.000137092
-0.000134318
-0.000131025
-0.000127224
-0.000122894
-0.000118108
-0.000112846
-0.000107128
-0.000100988
-9.44548e-05
-8.75409e-05
-8.0267e-05
-7.26966e-05
-6.48298e-05
-5.673e-05
-4.83868e-05
-3.98635e-05
-3.1139e-05
-2.23299e-05
-1.34361e-05
-4.4681e-06
4.47869e-06
1.34149e-05
2.22558e-05
3.10861e-05
3.97364e-05
4.82385e-05
5.65818e-05
6.46921e-05
7.24848e-05
8.00446e-05
8.73185e-05
9.41901e-05
0.000100712
0.000106843
0.000112518
0.000117791
0.000122566
0.000126886
0.000130697
0.000134001
0.000136743
0.000138945
0.000140671
0.000141793
0.000142354
0.000142344
0.000141793
0.00014065
0.000138998
0.000136796
0.000134022
0.000130708
0.000126896
0.000122576
0.000117769
0.000112528
0.000106821
0.000100691
9.41795e-05
8.72762e-05
8.0034e-05
7.24954e-05
6.4671e-05
5.65818e-05
4.82597e-05
3.97364e-05
3.10967e-05
2.23299e-05
1.34255e-05
4.53163e-06
-4.40457e-06
-1.33408e-05
-2.22346e-05
-3.10014e-05
-3.96835e-05
-4.81856e-05
-5.64759e-05
-6.45863e-05
-7.24213e-05
-7.99599e-05
-8.7202e-05
-9.41054e-05
-0.000100628
-0.000106726
-0.000112454
-0.000117716
-0.000122502
-0.000126801
-0.000130634
-0.000133926
-0.000136701
-0.000138913
-0.000140597
-0.000141709
-0.000142291
-0.000142302
-0.00014173
-0.000140565
-0.000138913
-0.000136722
-0.000133937
-0.000130634
-0.000126833
-0.000122555
-0.000117769
-0.000112518
-0.000106821
-0.00010068
-9.41477e-05
-8.72867e-05
-8.00234e-05
-7.24954e-05
-6.46498e-05
-5.65712e-05
-4.82491e-05
-3.97258e-05
-3.10649e-05
-2.22664e-05
-1.33937e-05
-4.4681e-06
4.45751e-06
1.33937e-05
2.2224e-05
3.09908e-05
3.962e-05
4.81009e-05
5.64124e-05
6.44804e-05
7.22943e-05
7.98223e-05
8.70538e-05
9.39148e-05
0.000100395
0.000106514
0.000112168
0.00011742
0.000122227
0.000126526
0.000130295
0.000133588
0.000136309
0.000138553
0.000140258
0.00014137
0.00014191
0.000141931
0.00014137
0.000140237
0.000138596
0.000136362
0.000133609
0.000130316
0.000126515
0.000122206
0.000117431
0.00011219
0.000106493
0.000100405
9.38724e-05
8.70326e-05
7.98117e-05
7.22943e-05
6.44804e-05
5.64124e-05
4.81009e-05
3.962e-05
3.09908e-05
2.22452e-05
1.34043e-05
4.53163e-06
-4.40457e-06
-1.3309e-05
-2.21711e-05
-3.09167e-05
-3.95353e-05
-4.80479e-05
-5.63171e-05
-6.43745e-05
-7.21884e-05
-7.9727e-05
-8.69268e-05
-9.38089e-05
-0.00010032
-0.000106419
-0.000112137
-0.000117367
-0.000122142
-0.000126462
-0.000130231
-0.000133514
-0.000136288
-0.000138522
-0.000140152
-0.000141285
-0.000141867
-0.000141857
-0.000141285
-0.000140173
-0.000138511
-0.000136288
-0.000133535
-0.000130263
-0.000126473
-0.000122185
-0.000117399
-0.000112158
-0.000106493
-0.000100384
-9.38724e-05
-8.70115e-05
-7.98117e-05
-7.22731e-05
-6.44804e-05
-5.63806e-05
-4.80903e-05
-3.96094e-05
-3.09696e-05
-2.22029e-05
-1.33725e-05
-4.44692e-06
4.44692e-06
1.33196e-05
2.21499e-05
3.09167e-05
3.95035e-05
4.79421e-05
5.62324e-05
6.42898e-05
7.20719e-05
7.95787e-05
8.67891e-05
9.36395e-05
0.000100109
0.000106176
0.00011184
0.000117071
0.000121825
0.000126123
0.000129903
0.000133164
0.000135917
0.00013813
0.000139792
0.000140915
0.000141497
0.000141507
0.000140936
0.000139824
0.000138162
0.000135949
0.000133175
0.000129914
0.000126144
0.000121846
0.000117071
0.00011184
0.000106176
0.000100088
9.35971e-05
8.67468e-05
7.95787e-05
7.20719e-05
6.42686e-05
5.62324e-05
4.79632e-05
3.95035e-05
3.09061e-05
2.21817e-05
1.33619e-05
4.49986e-06
-4.40457e-06
-1.32561e-05
-2.20864e-05
-3.08108e-05
-3.94082e-05
-4.78785e-05
-5.61371e-05
-6.41945e-05
-7.19872e-05
-7.94729e-05
-8.66621e-05
-9.3523e-05
-0.000100013
-0.000106101
-0.000111787
-0.000117018
-0.000121772
-0.000126049
-0.00012984
-0.000133101
-0.000135864
-0.000138077
-0.000139739
-0.000140862
-0.000141433
-0.000141412
-0.00014084
-0.00013976
-0.000138066
-0.000135885
-0.000133132
-0.000129882
-0.00012607
-0.000121825
-0.000117028
-0.000111798
-0.000106154
-0.000100088
-9.3576e-05
-8.67468e-05
-7.95682e-05
-7.20719e-05
-6.4258e-05
-5.62218e-05
-4.79421e-05
-3.94823e-05
-3.08638e-05
-2.21287e-05
-1.33196e-05
-4.42575e-06
4.43634e-06
1.32772e-05
2.20758e-05
3.08108e-05
3.93764e-05
4.77938e-05
5.60524e-05
6.40675e-05
7.18813e-05
7.93458e-05
8.64927e-05
9.33324e-05
9.97805e-05
0.000105858
0.000111512
0.0001167
0.000121443
0.00012571
0.000129511
0.000132762
0.000135483
0.000137696
0.000139358
0.00014047
0.000141042
0.000141063
0.000140491
0.000139369
0.000137738
0.000135515
0.000132762
0.000129511
0.000125753
0.000121443
0.000116711
0.000111512
0.000105826
9.97699e-05
9.33113e-05
8.64715e-05
7.93458e-05
7.18496e-05
6.40886e-05
5.60524e-05
4.78362e-05
3.93764e-05
3.08002e-05
2.21076e-05
1.33196e-05
4.4681e-06
-4.3834e-06
-1.32137e-05
-2.20229e-05
-3.07049e-05
-3.92917e-05
-4.77197e-05
-5.59571e-05
-6.39933e-05
-7.17543e-05
-7.92293e-05
-8.63974e-05
-9.32372e-05
-9.96958e-05
-0.000105763
-0.000111448
-0.000116668
-0.00012138
-0.000125657
-0.000129427
-0.000132677
-0.000135451
-0.000137653
-0.000139295
-0.000140438
-0.000140957
-0.000140957
-0.000140417
-0.000139305
-0.000137632
-0.000135441
-0.000132719
-0.000129469
-0.0001257
-0.000121433
-0.000116658
-0.00011147
-0.000105826
-9.97593e-05
-9.32795e-05
-8.64715e-05
-7.93352e-05
-7.18496e-05
-6.40463e-05
-5.60418e-05
-4.77938e-05
-3.93553e-05
-3.07791e-05
-2.20546e-05
-1.32772e-05
-4.42575e-06
4.39398e-06
1.32349e-05
2.20229e-05
3.06944e-05
3.926e-05
4.76456e-05
5.58724e-05
6.38557e-05
7.16378e-05
7.90917e-05
8.62174e-05
9.30466e-05
9.94628e-05
0.000105519
0.000111152
0.00011634
0.000121052
0.000125319
0.000129088
0.000132359
0.00013507
0.000137262
0.000138913
0.000140025
0.000140565
0.000140597
0.000140046
0.000138913
0.000137283
0.000135123
0.000132349
0.000129077
0.000125361
0.000121062
0.000116319
0.000111152
0.000105509
9.94523e-05
9.30042e-05
8.62068e-05
7.90705e-05
7.16378e-05
6.3898e-05
5.58936e-05
4.76774e-05
3.92494e-05
3.06838e-05
2.2044e-05
1.32667e-05
4.4681e-06
-4.37281e-06
-1.31714e-05
-2.19276e-05
-3.06202e-05
-3.91753e-05
-4.75821e-05
-5.57877e-05
-6.37604e-05
-7.15213e-05
-7.9007e-05
-8.61115e-05
-9.29195e-05
-9.93993e-05
-0.000105424
-0.000111088
-0.000116266
-0.000121009
-0.000125276
-0.000129003
-0.000132275
-0.000134996
-0.000137209
-0.00013886
-0.000139972
-0.000140523
-0.000140502
-0.000139951
-0.000138871
-0.000137209
-0.000135017
-0.000132296
-0.000129056
-0.000125297
-0.00012102
-0.000116298
-0.00011112
-0.000105487
-9.94417e-05
-9.2983e-05
-8.61962e-05
-7.90705e-05
-7.1606e-05
-6.38451e-05
-5.58724e-05
-4.7635e-05
-3.92282e-05
-3.06838e-05
-2.19805e-05
-1.32349e-05
-4.41516e-06
4.39398e-06
1.32031e-05
2.19487e-05
3.05779e-05
3.91012e-05
4.7508e-05
5.5703e-05
6.36545e-05
7.13731e-05
7.8827e-05
8.59527e-05
9.27395e-05
9.91452e-05
0.00010518
0.000110802
0.000115959
0.000120692
0.000124906
0.000128675
0.000131947
0.000134636
0.000136817
0.000138469
0.000139549
0.00014012
0.000140131
0.000139591
0.000138469
0.000136849
0.000134657
0.000131925
0.000128675
0.000124937
0.00012067
0.000115959
0.000110802
0.000105149
9.91346e-05
9.27289e-05
8.59421e-05
7.88164e-05
7.13943e-05
6.36863e-05
5.57136e-05
4.75291e-05
3.91012e-05
3.06202e-05
2.19699e-05
1.32243e-05
4.44692e-06
-4.34104e-06
-1.3129e-05
-2.18746e-05
-3.05355e-05
-3.90588e-05
-4.74127e-05
-5.56077e-05
-6.35592e-05
-7.13096e-05
-7.87423e-05
-8.58468e-05
-9.26231e-05
-9.90393e-05
-0.000105096
-0.000110707
-0.000115916