/*--------------------------------*- C++ -*----------------------------------*\
  =========                 |
  \\      /  F ield         | OpenFOAM: The Open Source CFD Toolbox
   \\    /   O peration     | Website:  https://openfoam.org
    \\  /    A nd           | Version:  7
     \\/     M anipulation  |
\*---------------------------------------------------------------------------*/
FoamFile
{
    version     2.0;
    format      ascii;
    class       volScalarField;
    location    "0.017";
    object      gradTy;
}
// * * * * * * * * * * * * * * * * * * * * * * * * * * * * * * * * * * * * * //

dimensions      [0 -1 0 1 0 0 0];

internalField   nonuniform List<scalar> 
10000
(
0.00012958
0.000130544
0.000132508
0.000135456
0.000139379
0.000144324
0.000150285
0.000157294
0.000165351
0.000174483
0.000184722
0.000196078
0.000208566
0.000222193
0.000237021
0.000253019
0.000270198
0.000288605
0.000308177
0.000328972
0.00035092
0.000374034
0.000398254
0.000423569
0.000449912
0.000477229
0.000505488
0.000534589
0.000564468
0.000595014
0.000626164
0.000657753
0.000689638
0.000721624
0.000753505
0.000785057
0.000815989
0.000846064
0.000875022
0.000902662
0.000928803
0.000953251
0.000975851
0.000996391
0.00101455
0.00103008
0.00104264
0.00105213
0.00105845
0.0010616
0.00106159
0.00105843
0.00105212
0.00104265
0.00103008
0.00101457
0.000996397
0.000975867
0.000953256
0.000928788
0.000902688
0.000875038
0.000846069
0.000815989
0.000785057
0.000753515
0.000721624
0.000689633
0.000657742
0.000626159
0.000595035
0.000564468
0.000534589
0.000505488
0.00047724
0.000449912
0.000423554
0.000398254
0.000374029
0.000350926
0.000328966
0.000308188
0.000288595
0.000270198
0.000252998
0.000237016
0.000222198
0.00020855
0.000196062
0.000184722
0.000174489
0.000165351
0.000157299
0.00015029
0.000144329
0.000139385
0.000135441
0.000132502
0.000130549
0.000129575
0.000388624
0.000391557
0.000397428
0.000406263
0.00041808
0.000432924
0.000450844
0.000471882
0.000496086
0.00052354
0.000554277
0.000588376
0.000625889
0.000666885
0.000711407
0.000759487
0.000811177
0.000866478
0.000925378
0.000987863
0.00105388
0.00112339
0.00119626
0.00127239
0.00135165
0.00143389
0.00151888
0.00160645
0.00169637
0.00178835
0.00188209
0.0019772
0.00207322
0.00216961
0.00226571
0.00236078
0.00245405
0.00254471
0.00263202
0.0027153
0.00279402
0.00286771
0.00293587
0.00299789
0.00305283
0.00309971
0.00313768
0.00316624
0.00318523
0.00319469
0.00319469
0.00318521
0.00316623
0.00313768
0.00309971
0.00305283
0.00299789
0.00293589
0.0028677
0.00279402
0.00271531
0.00263201
0.00254471
0.00245406
0.00236079
0.00226572
0.00216962
0.00207323
0.0019772
0.00188209
0.00178835
0.00169635
0.00160644
0.00151887
0.00143386
0.00135165
0.00127238
0.00119625
0.00112338
0.00105389
0.000987857
0.000925373
0.000866462
0.000811172
0.000759476
0.000711391
0.000666869
0.000625883
0.000588365
0.000554267
0.00052353
0.000496086
0.000471877
0.000450839
0.000432934
0.000418069
0.000406253
0.000397423
0.000391541
0.000388613
0.00064734
0.000652242
0.000662041
0.000676801
0.000696547
0.000721349
0.000751292
0.000786428
0.000826889
0.000872751
0.000924129
0.000981129
0.00104387
0.00111245
0.00118692
0.00126737
0.00135387
0.00144643
0.00154506
0.00164969
0.00176028
0.0018767
0.0019988
0.00212637
0.0022592
0.002397
0.00253951
0.00268634
0.00283712
0.00299145
0.00314875
0.00330845
0.00346979
0.00363181
0.00379347
0.00395345
0.00411042
0.004263
0.00440986
0.00454987
0.00468212
0.00480598
0.00492081
0.00502557
0.00511862
0.00519798
0.00526209
0.00531008
0.00534183
0.00535761
0.0053576
0.00534182
0.00531007
0.00526208
0.00519798
0.00511861
0.00502555
0.0049208
0.00480596
0.00468211
0.00454985
0.00440986
0.00426301
0.00411044
0.00395347
0.00379347
0.00363183
0.00346979
0.00330846
0.00314877
0.00299143
0.00283712
0.00268632
0.00253948
0.00239699
0.00225917
0.00212634
0.00199875
0.00187666
0.00176024
0.00164968
0.00154502
0.00144641
0.00135386
0.00126736
0.00118688
0.00111241
0.00104386
0.000981129
0.000924118
0.00087274
0.000826879
0.000786407
0.000751265
0.000721339
0.000696542
0.000676806
0.000662041
0.000652226
0.000647329
0.000905526
0.000912392
0.000926151
0.000946882
0.000974623
0.00100948
0.00105153
0.00110092
0.00115778
0.00122224
0.00129449
0.00137467
0.00146293
0.00155941
0.00166426
0.00177755
0.00189938
0.00202981
0.00216881
0.00231635
0.00247231
0.00263655
0.00280885
0.0029889
0.00317642
0.003371
0.00357223
0.00377964
0.0039927
0.00421081
0.00443332
0.00465937
0.00488794
0.00511775
0.0053472
0.00557447
0.00579752
0.00601428
0.00622275
0.00642121
0.00660847
0.00678393
0.00694718
0.00709701
0.00723072
0.00734469
0.00743611
0.00750396
0.00754844
0.00757039
0.00757039
0.00754847
0.00750397
0.00743611
0.00734467
0.0072307
0.007097
0.00694717
0.00678392
0.00660848
0.00642124
0.00622276
0.0060143
0.00579755
0.00557448
0.00534722
0.00511775
0.00488794
0.00465937
0.00443332
0.00421082
0.00399269
0.00377963
0.00357222
0.00337097
0.00317638
0.00298886
0.0028088
0.0026365
0.00247227
0.00231631
0.00216879
0.0020298
0.00189938
0.00177754
0.00166424
0.0015594
0.00146293
0.00137467
0.00129449
0.00122223
0.00115776
0.0011009
0.00105151
0.00100946
0.000974623
0.000946888
0.000926162
0.000912382
0.000905505
0.00116288
0.00117176
0.00118955
0.00121629
0.00125212
0.00129712
0.00135145
0.00141527
0.00148875
0.00157208
0.00166551
0.00176922
0.00188343
0.00200833
0.00214408
0.00229087
0.00244879
0.00261789
0.00279821
0.00298969
0.00319219
0.0034055
0.00362934
0.00386339
0.00410716
0.00436018
0.00462189
0.00489171
0.00516897
0.00545295
0.00574286
0.00603772
0.00633626
0.00663684
0.0069374
0.00723542
0.00752803
0.0078123
0.0080854
0.0083448
0.00858879
0.00881735
0.00903127
0.00922978
0.00940859
0.00956062
0.00968108
0.00976894
0.00982564
0.00985329
0.00985329
0.00982565
0.00976895
0.00968107
0.0095606
0.00940858
0.00922979
0.00903126
0.00881735
0.0085888
0.00834482
0.00808543
0.00781232
0.00752805
0.00723543
0.00693742
0.00663686
0.00633627
0.00603772
0.00574287
0.00545294
0.00516896
0.0048917
0.00462188
0.00436017
0.00410713
0.00386336
0.00362934
0.00340547
0.00319217
0.00298967
0.00279822
0.0026179
0.00244877
0.00229087
0.00214409
0.00200833
0.00188342
0.00176921
0.0016655
0.00157207
0.00148872
0.00141525
0.00135144
0.00129711
0.00125211
0.0012163
0.00118954
0.00117176
0.00116289
0.00141917
0.00143008
0.00145194
0.0014848
0.00152881
0.00158412
0.0016509
0.00172936
0.00181974
0.00192229
0.00203728
0.00216498
0.00230567
0.00245962
0.00262704
0.00280813
0.00300307
0.00321194
0.00343479
0.00367154
0.00392206
0.00418608
0.00446329
0.00475321
0.00505528
0.00536889
0.00569334
0.0060279
0.00637182
0.00672429
0.00708442
0.00745118
0.00782319
0.00819852
0.0085746
0.00894807
0.00931503
0.00967141
0.0100134
0.010337
0.0106393
0.0109216
0.0111882
0.011441
0.0116731
0.0118689
0.0120202
0.0121272
0.0121943
0.0122265
0.0122265
0.0121943
0.0121272
0.0120202
0.0118689
0.0116731
0.011441
0.0111882
0.0109216
0.0106393
0.010337
0.0100134
0.00967142
0.00931505
0.00894808
0.00857462
0.00819855
0.00782321
0.00745119
0.00708442
0.00672428
0.00637182
0.00602791
0.00569333
0.00536888
0.00505527
0.00475321
0.00446329
0.00418608
0.00392205
0.00367154
0.00343478
0.00321192
0.00300305
0.00280812
0.00262702
0.00245961
0.00230568
0.00216498
0.00203727
0.00192228
0.00181972
0.00172934
0.00165089
0.00158411
0.00152881
0.0014848
0.00145193
0.00143007
0.00141917
0.00167407
0.00168702
0.00171301
0.0017521
0.00180445
0.00187022
0.00194967
0.00204306
0.00215067
0.00227281
0.00240985
0.00256209
0.00272991
0.00291364
0.00311357
0.00332998
0.00356308
0.00381301
0.00407987
0.00436357
0.00466397
0.00498076
0.00531352
0.00566168
0.0060246
0.00640147
0.00679145
0.00719364
0.00760717
0.0080312
0.00846488
0.00890723
0.00935695
0.00981199
0.0102693
0.0107244
0.0111721
0.0116066
0.0120235
0.0124165
0.0127776
0.013111
0.0134301
0.0137458
0.014048
0.0142972
0.01448
0.0146022
0.0146754
0.0147094
0.0147094
0.0146754
0.0146022
0.01448
0.0142972
0.014048
0.0137458
0.0134302
0.013111
0.0127776
0.0124165
0.0120235
0.0116066
0.0111721
0.0107244
0.0102693
0.00981199
0.00935696
0.00890724
0.00846488
0.00803121
0.00760718
0.00719363
0.00679145
0.00640147
0.00602461
0.00566169
0.00531351
0.00498075
0.00466396
0.00436358
0.00407988
0.00381304
0.00356309
0.00332998
0.00311357
0.00291365
0.00272993
0.00256208
0.00240983
0.0022728
0.00215064
0.00204304
0.00194966
0.00187022
0.00180444
0.00175209
0.001713
0.00168702
0.00167406
0.00192721
0.00194227
0.00197244
0.00201788
0.0020787
0.00215516
0.00224753
0.00235614
0.00248134
0.00262355
0.00278315
0.00296059
0.00315629
0.00337066
0.00360413
0.00385701
0.00412962
0.00442216
0.00473475
0.00506735
0.00541981
0.00579182
0.0061828
0.00659212
0.00701895
0.00746232
0.00792117
0.0083944
0.00888101
0.00938009
0.009891
0.0104131
0.0109453
0.011486
0.0120317
0.0125768
0.0131136
0.0136335
0.0141342
0.0146068
0.0150249
0.0153979
0.0157609
0.0161514
0.016565
0.0168825
0.0170922
0.0172189
0.0172888
0.0173195
0.0173195
0.0172888
0.0172189
0.0170922
0.0168825
0.016565
0.0161514
0.0157609
0.0153979
0.0150249
0.0146067
0.0141341
0.0136335
0.0131136
0.0125767
0.0120317
0.011486
0.0109453
0.010413
0.009891
0.0093801
0.008881
0.0083944
0.00792117
0.00746232
0.00701896
0.00659213
0.00618281
0.00579182
0.00541984
0.00506736
0.00473477
0.00442218
0.00412965
0.00385703
0.00360414
0.00337067
0.00315628
0.00296057
0.00278314
0.00262354
0.00248134
0.00235613
0.00224752
0.00215514
0.00207868
0.00201785
0.00197244
0.00194226
0.0019272
0.0021782
0.00219541
0.00222986
0.00228172
0.00235119
0.00243856
0.00254414
0.00266829
0.00281151
0.00297428
0.00315704
0.00336036
0.00358477
0.00383079
0.00409891
0.00438962
0.00470327
0.00504019
0.00540052
0.00578432
0.00619142
0.00662146
0.00707385
0.00754776
0.00804216
0.00855586
0.00908755
0.00963584
0.0101994
0.0107774
0.0113694
0.0119754
0.0125953
0.0132284
0.0138717
0.0145175
0.0151556
0.0157664
0.0163628
0.0169443
0.0174129
0.0177925
0.0181642
0.0186361
0.0192829
0.0196828
0.0198955
0.0200015
0.0200508
0.0200699
0.0200699
0.0200509
0.0200015
0.0198955
0.0196828
0.019283
0.0186362
0.0181642
0.0177925
0.0174129
0.0169443
0.0163627
0.0157663
0.0151555
0.0145174
0.0138716
0.0132283
0.0125953
0.0119753
0.0113694
0.0107774
0.0101994
0.00963583
0.00908755
0.00855588
0.00804216
0.00754775
0.00707385
0.00662148
0.00619143
0.00578434
0.00540054
0.00504021
0.00470328
0.00438964
0.00409893
0.0038308
0.00358477
0.00336037
0.00315703
0.00297426
0.00281152
0.00266829
0.00254411
0.00243853
0.00235118
0.00228172
0.00222985
0.0021954
0.0021782
0.00242661
0.00244597
0.00248479
0.00254321
0.00262151
0.00272
0.00283905
0.00297916
0.00314085
0.00332468
0.00353126
0.00376126
0.00401529
0.00429403
0.00459809
0.00492807
0.00528447
0.0056677
0.00607806
0.00651565
0.00698033
0.00747174
0.00798919
0.0085317
0.00909799
0.00968659
0.0102958
0.0109239
0.011569
0.0122299
0.0129066
0.0136002
0.0143128
0.0150449
0.0157975
0.0165583
0.0173213
0.0180137
0.0187102
0.0195023
0.0200003
0.0203077
0.0205821
0.0210641
0.0223699
0.0227946
0.0229312
0.0229672
0.0229699
0.0229662
0.0229662
0.0229699
0.0229672
0.0229312
0.0227946
0.0223699
0.0210641
0.0205822
0.0203077
0.0200003
0.0195022
0.0187101
0.0180137
0.0173212
0.0165583
0.0157975
0.0150449
0.0143127
0.0136002
0.0129066
0.0122299
0.011569
0.0109239
0.0102958
0.00968662
0.00909801
0.00853171
0.00798919
0.00747175
0.00698034
0.00651565
0.00607807
0.00566771
0.00528447
0.00492806
0.00459809
0.00429403
0.00401529
0.00376127
0.00353128
0.00332468
0.00314085
0.00297916
0.00283905
0.00271998
0.0026215
0.00254321
0.00248479
0.00244597
0.00242661
0.00267186
0.00269344
0.00273671
0.00280184
0.00288913
0.00299897
0.00313184
0.00328827
0.00346888
0.00367436
0.00390546
0.00416292
0.00444756
0.00476016
0.00510152
0.00547236
0.00587335
0.00630508
0.00676795
0.00726222
0.00778783
0.0083444
0.00893117
0.00954695
0.0101902
0.0108591
0.0115515
0.0122651
0.0129969
0.0137448
0.0145095
0.015293
0.0161019
0.0169367
0.0178157
0.0187023
0.0196674
0.0203715
0.0210805
0.0224777
0.0229049
0.0229844
0.0229227
0.0228013
0.0226592
0.0225182
0.0223923
0.0222909
0.0222201
0.0221838
0.0221837
0.0222201
0.0222909
0.0223923
0.0225182
0.0226592
0.0228013
0.0229227
0.0229844
0.0229049
0.0224777
0.0210805
0.0203714
0.0196673
0.0187023
0.0178157
0.0169367
0.0161019
0.015293
0.0145095
0.0137448
0.0129969
0.0122651
0.0115515
0.0108591
0.0101902
0.00954695
0.00893118
0.00834441
0.00778784
0.00726223
0.00676796
0.00630507
0.00587336
0.00547236
0.00510153
0.00476017
0.00444756
0.00416293
0.00390546
0.00367437
0.00346889
0.00328827
0.00313184
0.00299899
0.00288914
0.00280184
0.00273671
0.00269346
0.00267188
0.00291345
0.00293728
0.00298506
0.00305702
0.0031535
0.00327494
0.0034219
0.00359501
0.00379504
0.00402276
0.00427905
0.00456486
0.00488113
0.00522881
0.0056089
0.0060223
0.00646988
0.00695239
0.00747051
0.00802462
0.00861485
0.00924088
0.00990187
0.0105964
0.0113224
0.0120778
0.0128603
0.0136667
0.0144918
0.0153309
0.0161863
0.0170578
0.0179676
0.0188921
0.0199395
0.0208865
0.022399
0.0228533
0.022896
0.0227451
0.0224818
0.0221274
0.0216476
0.0208831
0.0192702
0.0185487
0.0181502
0.0179045
0.0177558
0.0176848
0.0176848
0.0177558
0.0179045
0.0181502
0.0185487
0.0192702
0.0208831
0.0216475
0.0221274
0.0224818
0.0227451
0.022896
0.0228533
0.022399
0.0208865
0.0199395
0.0188921
0.0179676
0.0170578
0.0161863
0.0153309
0.0144918
0.0136667
0.0128603
0.0120778
0.0113224
0.0105964
0.00990187
0.00924089
0.00861485
0.00802464
0.00747051
0.0069524
0.00646988
0.00602231
0.00560891
0.00522883
0.00488114
0.00456487
0.00427906
0.00402277
0.00379505
0.00359504
0.00342191
0.00327495
0.00315351
0.00305704
0.00298507
0.00293728
0.00291345
0.00315066
0.00317678
0.00322917
0.00330809
0.00341392
0.0035472
0.00370855
0.00389876
0.00411863
0.00436917
0.00465141
0.00496643
0.00531536
0.0056994
0.0061197
0.00657742
0.00707365
0.00760942
0.00818562
0.00880297
0.00946185
0.0101622
0.0109029
0.0116824
0.012498
0.013347
0.0142275
0.0151371
0.0160653
0.0169984
0.0179502
0.018893
0.0199329
0.0208445
0.0222902
0.0226372
0.0225106
0.022071
0.0212297
0.0194487
0.0184716
0.0177156
0.0169735
0.0161251
0.0151113
0.0143735
0.0138698
0.0135339
0.0133261
0.0132263
0.0132263
0.0133261
0.0135339
0.0138698
0.0143735
0.0151113
0.0161251
0.0169735
0.0177156
0.0184716
0.0194487
0.0212297
0.022071
0.0225107
0.0226372
0.0222903
0.0208446
0.0199329
0.018893
0.0179502
0.0169984
0.0160653
0.0151371
0.0142275
0.013347
0.012498
0.0116824
0.010903
0.0101622
0.00946188
0.00880298
0.00818562
0.00760942
0.00707366
0.00657744
0.00611972
0.00569941
0.00531538
0.00496643
0.00465142
0.0043692
0.00411865
0.00389876
0.00370855
0.0035472
0.00341392
0.0033081
0.00322919
0.0031768
0.00315069
0.00338281
0.00341127
0.00346834
0.00355432
0.00366967
0.00381499
0.00399103
0.00419865
0.00443888
0.0047128
0.00502166
0.00536675
0.00574943
0.00617109
0.00663314
0.00713697
0.00768397
0.00827546
0.0089127
0.0095968
0.0103287
0.0111085
0.0119356
0.0128076
0.0137205
0.0146702
0.0156568
0.0166856
0.0177364
0.0187555
0.0198373
0.020751
0.0221529
0.022395
0.0220607
0.0211847
0.0192576
0.0180097
0.0168173
0.0154711
0.014357
0.0134016
0.0125131
0.0116345
0.0107718
0.0100549
0.00950908
0.00912087
0.00887263
0.00875162
0.00875164
0.00887264
0.0091209
0.00950908
0.0100549
0.0107718
0.0116344
0.0125131
0.0134016
0.014357
0.0154712
0.0168173
0.0180097
0.0192576
0.0211847
0.0220608
0.022395
0.0221529
0.020751
0.0198373
0.0187555
0.0177364
0.0166856
0.0156568
0.0146702
0.0137205
0.0128076
0.0119356
0.0111085
0.0103287
0.00959683
0.00891272
0.00827549
0.007684
0.007137
0.00663317
0.00617111
0.00574945
0.00536678
0.00502168
0.00471281
0.00443887
0.00419865
0.00399101
0.00381499
0.00366966
0.00355431
0.00346836
0.00341131
0.00338285
0.00360912
0.00363992
0.00370174
0.00379489
0.00391989
0.00407744
0.00426841
0.00449379
0.00475475
0.00505262
0.00538879
0.00576478
0.00618223
0.0066428
0.00714813
0.00769991
0.00829982
0.00894953
0.0096507
0.0104051
0.0112142
0.0120792
0.0130001
0.0139741
0.0149942
0.0160505
0.0171436
0.0183187
0.0195522
0.0205692
0.0220183
0.0222525
0.0218528
0.0208434
0.0186925
0.017097
0.0154472
0.0140066
0.012665
0.0113595
0.0101745
0.00910569
0.00812176
0.00720143
0.00635454
0.00562887
0.00505085
0.00462553
0.00434792
0.00421123
0.00421124
0.00434793
0.00462554
0.00505086
0.00562887
0.00635449
0.00720139
0.00812173
0.00910567
0.0101745
0.0113595
0.012665
0.0140067
0.0154472
0.0170971
0.0186926
0.0208435
0.0218528
0.0222525
0.0220183
0.0205692
0.0195522
0.0183187
0.0171436
0.0160505
0.0149942
0.0139741
0.0130001
0.0120792
0.0112142
0.0104051
0.00965072
0.00894955
0.00829984
0.00769994
0.00714815
0.00664283
0.00618228
0.00576482
0.0053888
0.00505261
0.00475476
0.00449377
0.00426839
0.00407742
0.00391989
0.00379489
0.00370176
0.00363995
0.00360913
0.00382869
0.00386189
0.00392849
0.00402887
0.00416363
0.00433358
0.00453966
0.00478308
0.00506517
0.00538744
0.00575153
0.00615927
0.00661249
0.0071132
0.00766333
0.00826488
0.00891984
0.00963017
0.010398
0.0112257
0.0121161
0.0130718
0.014095
0.015184
0.0163276
0.0174965
0.0186579
0.0200099
0.0217088
0.0220811
0.0217338
0.0207087
0.0184807
0.0167452
0.0148872
0.013172
0.0115253
0.00999346
0.00855672
0.00719919
0.00594016
0.0047825
0.0037182
0.00274052
0.00185624
0.00109081
0.000471866
1.17049e-05
-0.000290241
-0.000439202
-0.000439202
-0.000290236
1.17049e-05
0.000471882
0.0010908
0.00185621
0.0027405
0.00371819
0.00478249
0.00594014
0.00719918
0.00855672
0.00999348
0.0115253
0.013172
0.0148873
0.0167452
0.0184807
0.0207088
0.0217338
0.0220811
0.0217088
0.02001
0.0186579
0.0174965
0.0163276
0.015184
0.014095
0.0130718
0.0121161
0.0112257
0.010398
0.00963019
0.00891986
0.00826491
0.00766337
0.00711323
0.00661253
0.00615928
0.00575154
0.00538745
0.00506517
0.0047831
0.00453968
0.00433357
0.00416363
0.00402886
0.0039285
0.00386191
0.00382873
0.00404063
0.00407622
0.00414762
0.00425527
0.00439988
0.00458231
0.0048037
0.00506536
0.00536888
0.00571593
0.00610849
0.00654864
0.00703861
0.00758064
0.00817708
0.00883024
0.00954237
0.0103157
0.0111526
0.0120562
0.0130305
0.014081
0.0152145
0.0164365
0.0177401
0.0190613
0.0201003
0.0214814
0.0215096
0.0206326
0.0184445
0.016679
0.0147331
0.0128754
0.0110337
0.0092618
0.00756165
0.00594859
0.00442351
0.00298601
0.00164215
0.00039629
-0.000748369
-0.00179641
-0.00274918
-0.00358681
-0.00426286
-0.00476028
-0.00508322
-0.00524141
-0.00524141
-0.00508322
-0.00476029
-0.00426286
-0.00358682
-0.00274918
-0.00179644
-0.000748396
0.000396279
0.00164214
0.002986
0.00442352
0.00594859
0.00756166
0.00926182
0.0110337
0.0128754
0.0147332
0.016679
0.0184445
0.0206326
0.0215096
0.0214814
0.0201003
0.0190613
0.0177401
0.0164365
0.0152145
0.0140809
0.0130305
0.0120562
0.0111527
0.0103157
0.00954238
0.00883027
0.00817711
0.00758065
0.00703862
0.00654866
0.0061085
0.00571594
0.00536887
0.00506538
0.00480373
0.00458233
0.00439989
0.0042553
0.00414763
0.00407625
0.00404068
0.00424392
0.00428191
0.00435813
0.00447308
0.00462754
0.00482251
0.00505926
0.00533931
0.0056644
0.00603657
0.00645801
0.00693119
0.00745868
0.00804317
0.0086874
0.00939404
0.0101656
0.0110043
0.0119127
0.0128937
0.0139524
0.0150974
0.0163427
0.0177124
0.019248
0.0210298
0.0213282
0.0206221
0.0185317
0.0168058
0.0148497
0.0129352
0.010991
0.00907138
0.00718025
0.00533873
0.00355896
0.00185354
0.000230875
-0.00130178
-0.0027434
-0.00408849
-0.00531624
-0.00643994
-0.00748705
-0.0084487
-0.00920316
-0.00973685
-0.0100731
-0.0102349
-0.0102349
-0.0100731
-0.00973686
-0.00920317
-0.00844871
-0.00748706
-0.00643994
-0.00531626
-0.0040885
-0.00274341
-0.00130179
0.000230875
0.00185351
0.00355895
0.00533874
0.00718026
0.00907138
0.010991
0.0129351
0.0148497
0.0168058
0.0185317
0.0206221
0.0213282
0.0210298
0.019248
0.0177124
0.0163427
0.0150974
0.0139524
0.0128937
0.0119127
0.0110043
0.0101656
0.00939404
0.00868739
0.00804315
0.00745865
0.00693119
0.00645803
0.00603657
0.00566443
0.00533933
0.0050593
0.00482257
0.00462758
0.00447313
0.00435818
0.00428195
0.00424397
0.00443751
0.00447788
0.00455891
0.00468115
0.00484544
0.00505292
0.00530503
0.00560347
0.00595023
0.00634762
0.0067982
0.0073048
0.00787044
0.00849836
0.00919181
0.00995388
0.0107873
0.0116944
0.0126768
0.0137364
0.0148777
0.01611
0.0174511
0.0189353
0.0206322
0.0207951
0.0198757
0.0174579
0.0153068
0.0133158
0.0113076
0.00930312
0.00729396
0.0052966
0.0033229
0.00138793
-0.00049534
-0.00231241
-0.00405014
-0.00568871
-0.00724271
-0.00871637
-0.0100217
-0.0112007
-0.0123577
-0.0135711
-0.0144224
-0.0149724
-0.0153009
-0.015455
-0.015455
-0.0153009
-0.0149724
-0.0144224
-0.0135711
-0.0123577
-0.0112007
-0.0100217
-0.00871637
-0.00724271
-0.00568869
-0.00405013
-0.0023124
-0.000495345
0.00138792
0.00332288
0.00529657
0.00729394
0.00930312
0.0113076
0.0133158
0.0153068
0.0174579
0.0198756
0.0207951
0.0206322
0.0189353
0.0174511
0.01611
0.0148777
0.0137364
0.0126767
0.0116944
0.0107873
0.00995387
0.0091918
0.00849835
0.00787044
0.00730479
0.00679821
0.00634763
0.00595025
0.00560349
0.00530507
0.00505297
0.0048455
0.0046812
0.00455897
0.00447793
0.00443756
0.00462028
0.00466302
0.00474878
0.00487824
0.00505229
0.00527221
0.00553957
0.0058563
0.00622464
0.0066472
0.00712694
0.00766709
0.00827129
0.00894335
0.00968726
0.0105068
0.0114053
0.0123846
0.0134451
0.0145856
0.0158074
0.0171166
0.0185277
0.0200661
0.0198612
0.0179546
0.0162274
0.0141379
0.0120191
0.00992773
0.00783367
0.00573501
0.00363165
0.00153194
-0.000551853
-0.00260554
-0.00461879
-0.00657208
-0.00845576
-0.010196
-0.0118681
-0.0135676
-0.0149168
-0.0160542
-0.01725
-0.0191415
-0.0200338
-0.0205241
-0.0207999
-0.0209268
-0.0209268
-0.0207999
-0.0205241
-0.0200338
-0.0191415
-0.01725
-0.0160541
-0.0149168
-0.0135676
-0.0118681
-0.010196
-0.00845574
-0.00657207
-0.00461878
-0.00260556
-0.000551863
0.00153195
0.00363163
0.00573501
0.00783366
0.00992772
0.0120191
0.0141379
0.0162274
0.0179546
0.0198612
0.0200661
0.0185277
0.0171166
0.0158074
0.0145856
0.0134451
0.0123846
0.0114053
0.0105068
0.00968725
0.00894336
0.00827129
0.0076671
0.00712695
0.00664723
0.00622468
0.00585633
0.0055396
0.00527225
0.00505235
0.00487831
0.00474885
0.00466308
0.00462034
0.00479107
0.00483612
0.00492658
0.00506312
0.00524679
0.00547894
0.00576135
0.00609612
0.00648579
0.00693326
0.00744189
0.00801547
0.00865817
0.00937466
0.0101699
0.0110488
0.012016
0.0130735
0.0142196
0.0154471
0.0167506
0.0181306
0.0195949
0.0192475
0.017098
0.0150488
0.0130445
0.010937
0.00878043
0.00660553
0.0044143
0.00220826
-1.10061e-05
-0.00223857
-0.00445996
-0.00665568
-0.00883113
-0.0109427
-0.013058
-0.0148359
-0.0165408
-0.0188548
-0.020118
-0.0209505
-0.0215557
-0.0220118
-0.0223539
-0.0225997
-0.0227592
-0.0228377
-0.0228377
-0.0227592
-0.0225997
-0.0223539
-0.0220118
-0.0215557
-0.0209505
-0.020118
-0.0188548
-0.0165408
-0.0148359
-0.013058
-0.0109427
-0.00883113
-0.00665571
-0.00445998
-0.0022386
-1.10114e-05
0.00220825
0.00441429
0.0066055
0.0087804
0.010937
0.0130445
0.0150488
0.017098
0.0192475
0.0195949
0.0181306
0.0167506
0.0154471
0.0142196
0.0130735
0.0120159
0.0110488
0.0101699
0.00937465
0.00865818
0.00801547
0.00744192
0.00693329
0.00648582
0.00609614
0.00576138
0.00547897
0.00524683
0.00506317
0.00492661
0.00483617
0.0047911
0.00494866
0.00499598
0.00509101
0.00523449
0.00542754
0.00567167
0.00596879
0.00632123
0.00673177
0.00720364
0.00774063
0.00834699
0.00902764
0.00978809
0.0106346
0.011574
0.0126135
0.013758
0.0150038
0.0163314
0.0177242
0.0191757
0.0187784
0.016533
0.0143434
0.0121937
0.0100479
0.00785486
0.0056161
0.00334185
0.0010381
-0.00129089
-0.00364504
-0.00602914
-0.00842161
-0.010768
-0.0131629
-0.0153787
-0.0180801
-0.0196422
-0.0207089
-0.0214918
-0.0220569
-0.0223862
-0.0223266
-0.0213153
-0.0210913
-0.0210845
-0.0211232
-0.0211514
-0.0211514
-0.0211232
-0.0210845
-0.0210913
-0.0213153
-0.0223266
-0.0223862
-0.0220569
-0.0214918
-0.0207089
-0.0196422
-0.0180801
-0.0153786
-0.0131629
-0.010768
-0.00842163
-0.00602916
-0.00364505
-0.0012909
0.00103807
0.00334185
0.00561609
0.00785486
0.0100479
0.0121937
0.0143434
0.016533
0.0187784
0.0191757
0.0177242
0.0163314
0.0150038
0.013758
0.0126135
0.011574
0.0106346
0.0097881
0.00902766
0.00834703
0.00774064
0.00720367
0.00673179
0.00632125
0.00596882
0.00567171
0.00542758
0.00523453
0.00509105
0.00499601
0.00494867
0.00509181
0.00514135
0.0052408
0.00539099
0.00559314
0.00584889
0.00616026
0.00652983
0.00696058
0.00745611
0.00802053
0.00865865
0.00937598
0.0101789
0.0110751
0.0120738
0.0131873
0.0144294
0.0158024
0.0172548
0.0187518
0.0183716
0.0161091
0.0138678
0.0116401
0.00941224
0.00716282
0.00486867
0.00252326
0.000129305
-0.00230595
-0.00477263
-0.00727183
-0.00984916
-0.0124823
-0.0148995
-0.0177568
-0.0194258
-0.0205356
-0.0212477
-0.0214715
-0.0206622
-0.020551
-0.0205325
-0.0203703
-0.0199662
-0.0197454
-0.0196573
-0.0196316
-0.0196273
-0.0196273
-0.0196316
-0.0196573
-0.0197454
-0.0199663
-0.0203704
-0.0205325
-0.020551
-0.0206622
-0.0214715
-0.0212477
-0.0205356
-0.0194258
-0.0177568
-0.0148995
-0.0124823
-0.00984915
-0.00727185
-0.00477266
-0.00230593
0.00012931
0.00252327
0.00486868
0.00716284
0.00941226
0.0116401
0.0138678
0.0161091
0.0183716
0.0187518
0.0172548
0.0158024
0.0144294
0.0131873
0.0120738
0.0110751
0.010179
0.00937602
0.00865868
0.00802055
0.00745613
0.00696062
0.00652986
0.00616029
0.00584891
0.00559316
0.00539101
0.00524082
0.00514135
0.00509181
0.00521919
0.00527086
0.00537459
0.00553127
0.00574216
0.00600905
0.00633414
0.00672014
0.0071703
0.00768844
0.00827908
0.00894745
0.0096996
0.0105425
0.0114845
0.0125366
0.0137172
0.0150623
0.0166225
0.0182434
0.017956
0.0157465
0.013521
0.0112775
0.00901111
0.00671248
0.00436828
0.00196506
-0.000504562
-0.00304067
-0.00563266
-0.00825173
-0.0108661
-0.0136753
-0.0168377
-0.0186846
-0.019831
-0.0203348
-0.0196982
-0.0196557
-0.0195827
-0.0192655
-0.0190824
-0.0189526
-0.0187853
-0.0185608
-0.018392
-0.0182929
-0.0182434
-0.0182239
-0.0182238
-0.0182434
-0.0182929
-0.018392
-0.0185608
-0.0187853
-0.0189526
-0.0190824
-0.0192654
-0.0195828
-0.0196557
-0.0196982
-0.0203348
-0.019831
-0.0186846
-0.0168377
-0.0136752
-0.0108661
-0.0082517
-0.00563264
-0.00304065
-0.00050454
0.00196508
0.00436832
0.00671251
0.00901113
0.0112775
0.013521
0.0157465
0.017956
0.0182434
0.0166225
0.0150623
0.0137172
0.0125366
0.0114845
0.0105426
0.00969962
0.00894748
0.00827911
0.00768848
0.00717032
0.00672016
0.00633417
0.00600906
0.00574217
0.00553127
0.00537459
0.00527085
0.00521919
0.00532956
0.00538323
0.00549103
0.00565388
0.00587314
0.00615066
0.00648881
0.00689044
0.00735901
0.00789856
0.0085139
0.00921066
0.00999534
0.0108752
0.011858
0.0129516
0.0141704
0.0155765
0.0174878
0.0174362
0.0153763
0.0132376
0.011037
0.00878194
0.006472
0.00410137
0.001661
-0.000859246
-0.00346863
-0.00617356
-0.00896751
-0.0117873
-0.0143341
-0.0172341
-0.0187948
-0.0194678
-0.0188531
-0.0186923
-0.0183915
-0.0182187
-0.0180625
-0.0178567
-0.0176817
-0.0175307
-0.0173771
-0.0172177
-0.0170862
-0.0169953
-0.0169415
-0.016917
-0.016917
-0.0169415
-0.0169953
-0.0170862
-0.0172177
-0.0173771
-0.0175307
-0.0176817
-0.0178567
-0.0180625
-0.0182187
-0.0183915
-0.0186923
-0.0188531
-0.0194678
-0.0187948
-0.0172341
-0.014334
-0.0117872
-0.00896748
-0.00617353
-0.00346859
-0.000859193
0.00166104
0.00410141
0.00647204
0.00878198
0.011037
0.0132376
0.0153763
0.0174362
0.0174878
0.0155765
0.0141704
0.0129516
0.011858
0.0108752
0.00999535
0.00921067
0.00851391
0.00789856
0.00735902
0.00689048
0.00648883
0.00615068
0.00587315
0.00565389
0.00549105
0.00538323
0.00532956
0.00542156
0.00547714
0.00558879
0.00575745
0.0059846
0.00627218
0.00662266
0.00703903
0.00752488
0.00808442
0.00872272
0.00944575
0.0102606
0.0111752
0.0121968
0.0133247
0.0145271
0.0156849
0.0166072
0.0149283
0.0129734
0.0108748
0.00867796
0.00639752
0.00403514
0.00158651
-0.000955347
-0.00359931
-0.0063586
-0.00925601
-0.0123328
-0.0156699
-0.017539
-0.0184209
-0.0179379
-0.0178416
-0.0175404
-0.0173083
-0.0170735
-0.0168807
-0.0167066
-0.016531
-0.0163696
-0.0162233
-0.0160854
-0.0159568
-0.015849
-0.0157693
-0.0157184
-0.0156939
-0.0156939
-0.0157184
-0.0157694
-0.015849
-0.0159568
-0.0160854
-0.0162233
-0.0163696
-0.016531
-0.0167066
-0.0168807
-0.0170735
-0.0173083
-0.0175404
-0.0178416
-0.0179379
-0.0184208
-0.0175389
-0.0156699
-0.0123328
-0.00925596
-0.00635855
-0.00359927
-0.000955316
0.00158657
0.00403517
0.00639756
0.008678
0.0108748
0.0129734
0.0149283
0.0166073
0.0156849
0.0145271
0.0133247
0.0121968
0.0111752
0.0102606
0.00944576
0.00872273
0.00808444
0.00752488
0.00703905
0.00662269
0.00627221
0.00598463
0.00575747
0.0055888
0.00547715
0.00542157
0.00549389
0.00555125
0.00566647
0.00584058
0.00607511
0.00637211
0.00673413
0.00716427
0.00766623
0.00824425
0.00890351
0.00965025
0.0104924
0.0114404
0.0125078
0.0137086
0.0150213
0.0161287
0.0146136
0.0127915
0.0107969
0.00867969
0.0064581
0.00413614
0.00171066
-0.000824475
-0.00347516
-0.00624631
-0.00915019
-0.0122171
-0.0155154
-0.0172991
-0.0180214
-0.0172686
-0.0168076
-0.0165334
-0.0162697
-0.0160368
-0.015822
-0.0156315
-0.0154587
-0.0152964
-0.0151471
-0.0150111
-0.0148873
-0.0147771
-0.0146853
-0.0146157
-0.0145697
-0.0145469
-0.0145469
-0.0145697
-0.0146157
-0.0146853
-0.0147771
-0.0148873
-0.0150111
-0.0151471
-0.0152964
-0.0154587
-0.0156315
-0.015822
-0.0160368
-0.0162697
-0.0165334
-0.0168076
-0.0172686
-0.0180214
-0.017299
-0.0155153
-0.0122171
-0.00915015
-0.00624627
-0.00347512
-0.000824438
0.0017107
0.00413617
0.00645813
0.00867972
0.0107969
0.0127915
0.0146136
0.0161287
0.0150213
0.0137086
0.0125078
0.0114404
0.0104924
0.00965027
0.00890353
0.00824427
0.00766623
0.0071643
0.00673417
0.00637215
0.00607515
0.00584062
0.00566649
0.00555127
0.0054939
0.00554524
0.00560423
0.00572272
0.00590183
0.00614318
0.0064489
0.00682167
0.00726465
0.00778152
0.00837655
0.00905466
0.00982187
0.0106861
0.0116596
0.0127658
0.0140682
0.0158167
0.0154775
0.0130203
0.0109087
0.00881196
0.00664458
0.00438012
0.00200503
-0.000492751
-0.00312461
-0.00589601
-0.00879963
-0.0118361
-0.0150236
-0.0164901
-0.0162785