/*--------------------------------*- C++ -*----------------------------------*\
  =========                 |
  \\      /  F ield         | OpenFOAM: The Open Source CFD Toolbox
   \\    /   O peration     | Website:  https://openfoam.org
    \\  /    A nd           | Version:  7
     \\/     M anipulation  |
\*---------------------------------------------------------------------------*/
FoamFile
{
    version     2.0;
    format      ascii;
    class       volScalarField;
    location    "0.017";
    object      gradTx;
}
// * * * * * * * * * * * * * * * * * * * * * * * * * * * * * * * * * * * * * //

dimensions      [0 -1 0 1 0 0 0];

internalField   nonuniform List<scalar> 
10000
(
0.000129575
0.000388624
0.000647334
0.000905505
0.00116286
0.00141913
0.00167404
0.0019272
0.00217821
0.00242661
0.00267188
0.00291345
0.00315067
0.00338282
0.00360913
0.00382873
0.00404065
0.00424395
0.00443754
0.00462032
0.00479109
0.00494868
0.00509181
0.0052192
0.00532955
0.00542156
0.00549391
0.00554525
0.00557431
0.00557973
0.00556029
0.00551483
0.00544223
0.00534163
0.00521233
0.00505391
0.00486621
0.0046495
0.00440429
0.00413134
0.00383176
0.00350673
0.00315761
0.00278605
0.00239403
0.00198402
0.00155891
0.00112195
0.000676536
0.000226073
-0.000226089
-0.000676546
-0.00112196
-0.00155891
-0.00198403
-0.00239404
-0.00278607
-0.00315763
-0.00350676
-0.0038318
-0.00413138
-0.0044043
-0.00464952
-0.00486625
-0.00505392
-0.00521236
-0.00534165
-0.00544225
-0.00551483
-0.00556031
-0.00557972
-0.00557428
-0.00554524
-0.0054939
-0.00542157
-0.00532956
-0.0052192
-0.00509182
-0.00494871
-0.00479113
-0.00462034
-0.00443756
-0.00424396
-0.00404066
-0.00382871
-0.00360913
-0.00338284
-0.00315068
-0.00291344
-0.00267186
-0.0024266
-0.0021782
-0.0019272
-0.00167408
-0.00141916
-0.00116289
-0.000905526
-0.00064735
-0.000388635
-0.00012958
0.000130565
0.000391541
0.000652231
0.000912382
0.00117174
0.00143005
0.00168701
0.00194227
0.0021954
0.00244598
0.00269347
0.00293729
0.00317678
0.00341128
0.00363995
0.00386191
0.00407624
0.00428193
0.0044779
0.00466304
0.00483616
0.00499601
0.00514135
0.00527086
0.00538323
0.00547714
0.00555126
0.00560425
0.00563474
0.00564144
0.00562302
0.00557829
0.00550611
0.00540551
0.00527577
0.00511638
0.00492723
0.00470853
0.00446089
0.00418512
0.00388234
0.00355378
0.00320075
0.00282475
0.00242772
0.0020121
0.00158096
0.00113775
0.000686007
0.000229212
-0.000229234
-0.000686017
-0.00113775
-0.00158096
-0.00201211
-0.00242773
-0.00282478
-0.00320077
-0.00355381
-0.00388238
-0.00418514
-0.00446091
-0.00470858
-0.00492725
-0.00511639
-0.00527579
-0.00540554
-0.00550612
-0.0055783
-0.00562302
-0.00564141
-0.00563472
-0.00560422
-0.00555126
-0.00547714
-0.00538322
-0.00527086
-0.00514135
-0.00499603
-0.00483619
-0.00466308
-0.00447794
-0.00428195
-0.00407625
-0.0038619
-0.00363994
-0.0034113
-0.0031768
-0.00293727
-0.00269345
-0.00244597
-0.00219539
-0.00194226
-0.00168704
-0.00143008
-0.00117177
-0.000912408
-0.000652247
-0.000391552
-0.00013056
0.000132502
0.000397428
0.000662041
0.000926156
0.00118952
0.00145191
0.001713
0.00197244
0.00222987
0.0024848
0.00273672
0.00298507
0.00322918
0.00346834
0.00370174
0.0039285
0.00414763
0.00435816
0.00455892
0.00474882
0.00492662
0.00509105
0.00524082
0.00537459
0.00549103
0.00558878
0.00566648
0.00572275
0.0057562
0.00576546
0.00574915
0.00570596
0.00563465
0.00553412
0.0054035
0.00524225
0.00505014
0.00482747
0.00457487
0.00429335
0.00398416
0.00364859
0.0032878
0.002903
0.00249584
0.00206887
0.00162544
0.00116951
0.000704991
0.000235518
-0.000235555
-0.000705012
-0.00116949
-0.00162544
-0.00206888
-0.00249586
-0.00290302
-0.00328781
-0.00364863
-0.00398419
-0.00429338
-0.00457489
-0.00482749
-0.00505016
-0.00524226
-0.00540352
-0.00553415
-0.00563467
-0.00570597
-0.00574915
-0.00576545
-0.0057562
-0.00572274
-0.00566648
-0.00558878
-0.00549103
-0.0053746
-0.00524082
-0.00509105
-0.00492665
-0.00474886
-0.00455895
-0.00435818
-0.00414764
-0.00392849
-0.00370175
-0.00346835
-0.00322919
-0.00298506
-0.00273669
-0.00248477
-0.00222986
-0.00197245
-0.001713
-0.00145194
-0.00118956
-0.000926188
-0.000662062
-0.000397438
-0.000132508
0.000135446
0.000406242
0.000676801
0.000946882
0.00121628
0.00148479
0.00175209
0.00201786
0.00228173
0.00254322
0.00280185
0.00305704
0.00330809
0.00355432
0.00379488
0.00402886
0.0042553
0.00447312
0.00468117
0.00487826
0.00506317
0.00523453
0.00539102
0.00553125
0.00565387
0.00575746
0.00584059
0.00590186
0.00593984
0.00595307
0.00594004
0.00589933
0.00582948
0.00572919
0.00559738
0.00543334
0.00523678
0.00500799
0.00474774
0.00445738
0.00413846
0.00379247
0.00342035
0.00302257
0.00260013
0.00215557
0.00169305
0.0012175
0.000733525
0.000244983
-0.000245015
-0.000733546
-0.0012175
-0.00169305
-0.00215558
-0.00260015
-0.00302259
-0.00342036
-0.00379251
-0.00413848
-0.0044574
-0.00474776
-0.00500799
-0.0052368
-0.00543336
-0.00559743
-0.00572922
-0.00582949
-0.00589932
-0.00594005
-0.00595306
-0.00593983
-0.00590187
-0.00584059
-0.00575745
-0.00565388
-0.00553127
-0.00539103
-0.00523454
-0.00506319
-0.0048783
-0.00468119
-0.00447311
-0.00425531
-0.00402888
-0.00379488
-0.00355432
-0.00330809
-0.00305701
-0.00280184
-0.00254321
-0.00228172
-0.00201787
-0.00175211
-0.00148481
-0.00121632
-0.000946909
-0.000676816
-0.000406274
-0.000135451
0.000139385
0.000418058
0.000696531
0.000974628
0.00125211
0.00152881
0.00180444
0.00207869
0.00235119
0.00262152
0.00288914
0.00315351
0.00341392
0.00366966
0.00391988
0.00416363
0.0043999
0.00462757
0.00484547
0.00505232
0.00524682
0.00542758
0.00559316
0.00574216
0.00587314
0.0059846
0.00607513
0.0061432
0.00618738
0.00620608
0.00619771
0.00616059
0.00609302
0.00599338
0.00586024
0.00569256
0.00548995
0.0052527
0.00498181
0.00467907
0.00434688
0.0039873
0.00360087
0.00318653
0.00274351
0.00227426
0.00178472
0.00128184
0.000771414
0.000257466
-0.000257482
-0.000771435
-0.00128186
-0.00178474
-0.00227428
-0.00274353
-0.00318655
-0.00360089
-0.00398731
-0.00434689
-0.00467909
-0.00498182
-0.00525271
-0.00548998
-0.00569258
-0.00586028
-0.00599341
-0.00609305
-0.00616059
-0.00619771
-0.00620608
-0.00618738
-0.0061432
-0.00607513
-0.00598462
-0.00587315
-0.00574218
-0.00559318
-0.00542759
-0.00524684
-0.00505233
-0.00484547
-0.00462758
-0.0043999
-0.00416363
-0.00391988
-0.00366967
-0.00341391
-0.00315349
-0.00288914
-0.0026215
-0.00235119
-0.00207869
-0.00180446
-0.00152883
-0.00125213
-0.000974644
-0.000696563
-0.000418095
-0.00013939
0.000144324
0.000432919
0.000721328
0.00100945
0.00129711
0.00158412
0.00187023
0.00215516
0.00243854
0.00271998
0.00299899
0.00327495
0.0035472
0.003815
0.00407742
0.00433356
0.00458232
0.00482255
0.00505296
0.00527224
0.00547896
0.0056717
0.00584891
0.00600906
0.00615067
0.00627218
0.00637212
0.00644893
0.00650109
0.00652695
0.00652481
0.00649271
0.0064286
0.00633033
0.00619597
0.00602398
0.00581366
0.00556535
0.00528025
0.00496076
0.00461101
0.00423495
0.00383278
0.0033999
0.00293097
0.00242806
0.00190137
0.00136204
0.000817874
0.000272633
-0.000272644
-0.00081789
-0.00136207
-0.00190139
-0.00242808
-0.00293097
-0.00339992
-0.0038328
-0.00423495
-0.00461102
-0.00496076
-0.00528024
-0.00556537
-0.0058137
-0.00602399
-0.00619599
-0.00633037
-0.00642863
-0.00649273
-0.00652483
-0.00652697
-0.00650108
-0.00644894
-0.00637213
-0.00627221
-0.00615067
-0.00600907
-0.00584892
-0.00567171
-0.00547898
-0.00527225
-0.00505297
-0.00482256
-0.00458233
-0.00433356
-0.00407743
-0.00381498
-0.00354719
-0.00327493
-0.00299898
-0.00271999
-0.00243854
-0.00215515
-0.00187024
-0.00158414
-0.00129714
-0.00100947
-0.000721354
-0.000432934
-0.000144324
0.000150301
0.000450828
0.000751249
0.0010515
0.00135143
0.00165089
0.00194968
0.00224754
0.00254412
0.00283905
0.00313184
0.0034219
0.00370857
0.00399103
0.00426838
0.00453966
0.0048037
0.0050593
0.00530508
0.00553961
0.00576136
0.00596881
0.00616029
0.00633415
0.00648881
0.00662266
0.00673414
0.0068217
0.00688376
0.00691868
0.00692461
0.00689935
0.00684036
0.0067448
0.00660977
0.00643299
0.00621329
0.00595103
0.00564743
0.00530504
0.00493145
0.00453619
0.00412033
0.0036714
0.00317139
0.00262139
0.00204297
0.00145594
0.000870708
0.000289601
-0.000289638
-0.000870718
-0.00145596
-0.00204299
-0.00262141
-0.00317141
-0.00367142
-0.00412034
-0.00453622
-0.00493144
-0.00530503
-0.00564744
-0.00595105
-0.00621331
-0.00643302
-0.0066098
-0.00674482
-0.00684041
-0.00689937
-0.00692463
-0.00691868
-0.00688375
-0.0068217
-0.00673416
-0.00662268
-0.00648882
-0.00633417
-0.0061603
-0.00596883
-0.00576138
-0.0055396
-0.00530509
-0.00505931
-0.00480371
-0.00453966
-0.00426838
-0.00399101
-0.00370855
-0.0034219
-0.00313184
-0.00283906
-0.00254412
-0.00224752
-0.00194968
-0.00165091
-0.00135145
-0.00105153
-0.000751286
-0.000450844
-0.000150295
0.000157294
0.000471871
0.000786407
0.00110088
0.00141523
0.00172934
0.00204308
0.00235615
0.0026683
0.00297916
0.00328827
0.00359502
0.00389876
0.00419864
0.00449377
0.00478307
0.00506536
0.00533934
0.00560352
0.00585634
0.00609615
0.00632124
0.00652984
0.00672015
0.00689045
0.00703903
0.00716428
0.00726466
0.00733864
0.00738466
0.00740085
0.00738479
0.00733335
0.00724266
0.00710841
0.0069268
0.00669586
0.00641676
0.0060901
0.00571487
0.00530552
0.00488748
0.00446761
0.00401773
0.00348233
0.00286008
0.00220643
0.00155747
0.000925029
0.000306578
-0.000306615
-0.000925039
-0.0015575
-0.00220643
-0.00286009
-0.00348235
-0.00401774
-0.00446765
-0.0048875
-0.00530552
-0.00571487
-0.0060901
-0.00641677
-0.00669589
-0.00692681
-0.00710842
-0.00724269
-0.00733338
-0.00738481
-0.00740086
-0.00738467
-0.00733865
-0.00726466
-0.00716431
-0.00703905
-0.00689045
-0.00672016
-0.00652987
-0.00632127
-0.00609615
-0.00585633
-0.00560351
-0.00533934
-0.00506538
-0.00478308
-0.00449376
-0.00419863
-0.00389876
-0.00359503
-0.00328826
-0.00297917
-0.00266831
-0.00235613
-0.00204306
-0.00172937
-0.00141525
-0.00110092
-0.000786428
-0.000471871
-0.000157289
0.000165346
0.000496075
0.000826847
0.00115775
0.00148872
0.00181973
0.00215067
0.00248134
0.00281153
0.00314086
0.00346888
0.00379504
0.00411863
0.00443886
0.00475473
0.00506516
0.00536885
0.00566442
0.00595027
0.00622468
0.00648583
0.00673178
0.00696059
0.00717031
0.00735901
0.00752488
0.00766622
0.00778153
0.00786944
0.00792868
0.00795756
0.00795369
0.00791332
0.00783119
0.00770054
0.00751486
0.00727001
0.00697161
0.00662071
0.0061958
0.00572258
0.00527214
0.00487379
0.00447547
0.00390258
0.00314861
0.00237937
0.00165259
0.000971261
0.000320284
-0.000320311
-0.000971298
-0.00165261
-0.00237937
-0.00314861
-0.00390259
-0.00447548
-0.00487382
-0.00527218
-0.00572259
-0.00619582
-0.00662072
-0.00697163
-0.00727005
-0.00751488
-0.00770054
-0.00783122
-0.00791334
-0.00795369
-0.00795757
-0.00792868
-0.00786945
-0.00778153
-0.00766623
-0.00752489
-0.00735902
-0.00717032
-0.00696063
-0.0067318
-0.00648583
-0.00622468
-0.00595026
-0.00566443
-0.00536887
-0.00506516
-0.00475475
-0.00443886
-0.00411866
-0.00379504
-0.00346888
-0.00314086
-0.00281153
-0.00248135
-0.00215067
-0.00181974
-0.00148873
-0.00115778
-0.000826884
-0.000496086
-0.000165346
0.000174494
0.000523509
0.000872719
0.00122222
0.00157208
0.00192228
0.0022728
0.00262355
0.00297428
0.00332468
0.00367435
0.00402276
0.00436919
0.00471279
0.00505259
0.00538743
0.00571593
0.00603659
0.00634766
0.00664723
0.0069333
0.00720366
0.00745613
0.00768847
0.00789856
0.00808442
0.00824426
0.00837655
0.00848026
0.00855463
0.00859876
0.00861073
0.00858638
0.008519
0.00839749
0.00821068
0.00794473
0.00762398
0.00726805
0.006765
0.0061537
0.00563871
0.00531127
0.00513652
0.00452896
0.00347261
0.00252516
0.00171284
0.000993427
0.000325658
-0.000325674
-0.000993464
-0.00171288
-0.00252515
-0.0034726
-0.00452896
-0.00513655
-0.00531132
-0.00563876
-0.00615374
-0.00676504
-0.00726806
-0.00762398
-0.00794477
-0.00821071
-0.00839752
-0.00851901
-0.00858638
-0.00861073
-0.00859878
-0.00855461
-0.00848024
-0.00837656
-0.00824426
-0.00808443
-0.00789858
-0.00768848
-0.00745614
-0.00720368
-0.00693329
-0.00664724
-0.00634764
-0.00603659
-0.00571595
-0.00538744
-0.0050526
-0.00471279
-0.00436919
-0.00402277
-0.00367437
-0.00332468
-0.00297428
-0.00262355
-0.00227283
-0.00192229
-0.00157208
-0.00122224
-0.00087274
-0.000523519
-0.000174483
0.000184711
0.000554256
0.000924097
0.00129447
0.00166551
0.00203727
0.00240984
0.00278314
0.00315705
0.00353128
0.00390545
0.00427905
0.00465141
0.00502166
0.00538877
0.00575153
0.0061085
0.00645802
0.00679822
0.00712695
0.00744193
0.00774064
0.00802055
0.00827911
0.0085139
0.00872272
0.00890352
0.00905467
0.00917545
0.00926633
0.00932789
0.00935983
0.00935799
0.00931595
0.00921397
0.00903859
0.00872543
0.00836052
0.00810921
0.00748592
0.00652806
0.00585399
0.00563016
0.00626323
0.00563305
0.00370992
0.00255195
0.00169122
0.00097035
0.000316653
-0.000316695
-0.000970372
-0.00169125
-0.00255195
-0.00370991
-0.00563304
-0.00626324
-0.00563022
-0.00585404
-0.0065281
-0.00748597
-0.00810922
-0.00836055
-0.00872547
-0.0090386
-0.00921398
-0.00931597
-0.009358
-0.00935983
-0.00932789
-0.00926631
-0.00917542
-0.00905467
-0.00890352
-0.00872273
-0.00851393
-0.00827914
-0.00802057
-0.00774065
-0.00744193
-0.00712695
-0.00679821
-0.00645803
-0.00610852
-0.00575155
-0.00538878
-0.00502166
-0.00465141
-0.00427906
-0.00390546
-0.00353129
-0.00315705
-0.00278315
-0.00240985
-0.00203729
-0.00166551
-0.00129449
-0.000924118
-0.000554267
-0.000184717
0.000196072
0.000588354
0.000981108
0.00137465
0.00176921
0.00216499
0.00256209
0.00296058
0.00336038
0.00376126
0.00416291
0.00456487
0.00496642
0.00536675
0.0057648
0.00615926
0.00654865
0.00693118
0.0073048
0.00766711
0.00801547
0.00834701
0.00865868
0.00894748
0.00921067
0.00944576
0.00965027
0.00982189
0.00995999
0.0100673
0.0101469
0.0102031
0.0102301
0.0102328
0.0101631
0.0100623
0.00961391
0.00903712
0.00937426
0.00858938
0.00666043
0.00565654
0.00512818
0.004873
0.00424585
0.00320577
0.00229781
0.00154059
0.000886314
0.000289336
-0.000289368
-0.000886335
-0.00154061
-0.0022978
-0.00320576
-0.00424585
-0.00487302
-0.00512822
-0.00565657
-0.00666048
-0.00858945
-0.0093743
-0.00903713
-0.00961393
-0.0100623
-0.0101631
-0.0102329
-0.0102301
-0.0102031
-0.0101469
-0.0100673
-0.00995995
-0.00982188
-0.00965027
-0.00944578
-0.00921069
-0.0089475
-0.00865869
-0.00834702
-0.00801547
-0.00766711
-0.00730479
-0.00693119
-0.00654867
-0.00615927
-0.00576479
-0.00536675
-0.00496643
-0.00456487
-0.00416293
-0.00376126
-0.00336038
-0.00296059
-0.00256211
-0.00216499
-0.00176923
-0.00137467
-0.000981118
-0.00058836
-0.000196067
0.00020854
0.000625867
0.00104385
0.00146291
0.00188343
0.00230567
0.00272991
0.00315628
0.00358479
0.0040153
0.00444756
0.00488113
0.00531536
0.00574942
0.00618226
0.00661251
0.00703859
0.00745866
0.00787044
0.0082713
0.00865817
0.00902766
0.00937602
0.00969962
0.00999536
0.0102606
0.0104924
0.0106862
0.0108396
0.0109609
0.0110549
0.0111411
0.0111923
0.0112879
0.0112083
0.0114981
0.0106923
0.00885751
0.00800108
0.00707172
0.00591034
0.00501976
0.00438585
0.00388584
0.00329867
0.00258994
0.00190767
0.00129688
0.000750667
0.000245581
-0.000245613
-0.000750694
-0.0012969
-0.00190767
-0.00258993
-0.00329868
-0.00388587
-0.00438589
-0.0050198
-0.00591038
-0.00707176
-0.00800112
-0.00885753
-0.0106923
-0.0114981
-0.0112083
-0.0112879
-0.0111923
-0.0111412
-0.0110549
-0.0109608
-0.0108396
-0.0106862
-0.0104924
-0.0102606
-0.00999539
-0.00969964
-0.00937602
-0.00902766
-0.00865818
-0.0082713
-0.00787045
-0.00745866
-0.00703861
-0.00661251
-0.00618225
-0.00574943
-0.00531539
-0.00488113
-0.00444756
-0.00401529
-0.00358479
-0.00315629
-0.00272993
-0.00230568
-0.00188342
-0.00146294
-0.00104387
-0.000625873
-0.00020854
0.000222193
0.000666874
0.00111241
0.0015594
0.00200832
0.00245961
0.00291364
0.00337066
0.0038308
0.00429403
0.00476017
0.00522882
0.00569939
0.00617108
0.00664281
0.00711321
0.00758064
0.00804314
0.00849835
0.00894334
0.00937467
0.00978811
0.010179
0.0105426
0.0108752
0.0111753
0.0114404
0.0116597
0.0118212
0.0119522
0.0120415
0.0121858
0.0121817
0.0125902
0.0119558
0.0102827
0.00904764
0.00775619
0.00675196
0.00583127
0.00492734
0.00415848
0.00353774
0.00301073
0.00249418
0.00196426
0.00145828
0.000996974
0.000578709
0.00018954
-0.000189561
-0.00057873
-0.000996995
-0.00145829
-0.00196424
-0.00249419
-0.00301076
-0.00353779
-0.00415852
-0.00492736
-0.0058313
-0.00675199
-0.0077562
-0.00904767
-0.0102827
-0.0119558
-0.0125902
-0.0121817
-0.0121858
-0.0120415
-0.0119522
-0.0118213
-0.0116596
-0.0114404
-0.0111753
-0.0108753
-0.0105426
-0.010179
-0.0097881
-0.00937466
-0.00894336
-0.00849837
-0.00804315
-0.00758065
-0.00711321
-0.00664281
-0.0061711
-0.00569941
-0.00522881
-0.00476017
-0.00429404
-0.00383082
-0.00337068
-0.00291366
-0.00245961
-0.00200833
-0.00155941
-0.00111241
-0.000666864
-0.000222187
0.000236995
0.000711391
0.00118691
0.00166424
0.00214409
0.00262704
0.00311357
0.00360413
0.00409894
0.00459808
0.0051015
0.00560889
0.0061197
0.00663314
0.00714814
0.00766333
0.0081771
0.00868738
0.00919179
0.00968725
0.0101699
0.0106346
0.0110751
0.0114846
0.011858
0.0121968
0.0125078
0.0127658
0.0129095
0.0130617
0.0130504
0.0134567
0.0128362
0.0111957
0.00999799
0.00869493
0.00751723
0.0064172
0.00546257
0.00461145
0.00384086
0.00317582
0.00261866
0.00214454
0.00171911
0.00132725
0.000973638
0.000660432
0.000381419
0.000124599
-0.000124599
-0.000381435
-0.000660474
-0.000973664
-0.00132725
-0.00171913
-0.00214457
-0.0026187
-0.00317584
-0.00384088
-0.00461148
-0.00546259
-0.00641721
-0.00751725
-0.00869495
-0.00999801
-0.0111958
-0.0128363
-0.0134567
-0.0130504
-0.0130617
-0.0129095
-0.0127658
-0.0125078
-0.0121969
-0.011858
-0.0114846
-0.0110751
-0.0106346
-0.0101699
-0.00968726
-0.00919178
-0.00868739
-0.00817709
-0.00766335
-0.00714815
-0.00663314
-0.00611971
-0.0056089
-0.00510153
-0.00459812
-0.00409896
-0.00360414
-0.00311359
-0.00262703
-0.00214409
-0.00166424
-0.00118689
-0.000711386
-0.000237005
0.000253014
0.000759487
0.00126737
0.00177756
0.00229087
0.00280812
0.00332998
0.00385701
0.00438963
0.00492806
0.00547234
0.00602228
0.00657741
0.00713698
0.00769992
0.00826489
0.00883027
0.00939403
0.00995387
0.0105068
0.0110488
0.011574
0.0120738
0.0125367
0.0129516
0.0133247
0.0137086
0.0140683
0.0140717
0.0144183
0.0137249
0.0120203
0.0107726
0.00942993
0.00820937
0.00703736
0.00595726
0.00497397
0.00410479
0.00334077
0.00267356
0.00210576
0.00163348
0.00124351
0.00092163
0.000660564
0.000454931
0.000294032
0.00016443
5.28601e-05
-5.28654e-05
-0.000164436
-0.000294063
-0.000454963
-0.000660606
-0.000921651
-0.00124353
-0.00163352
-0.00210579
-0.00267358
-0.00334078
-0.00410478
-0.00497397
-0.00595726
-0.00703736
-0.0082094
-0.00942995
-0.0107726
-0.0120203
-0.0137249
-0.0144183
-0.0140717
-0.0140682
-0.0137086
-0.0133247
-0.0129517
-0.0125367
-0.0120738
-0.011574
-0.0110488
-0.0105068
-0.00995387
-0.00939403
-0.00883025
-0.0082649
-0.00769992
-0.00713698
-0.00657742
-0.0060223
-0.00547237
-0.00492808
-0.00438965
-0.00385705
-0.00333
-0.00280813
-0.00229086
-0.00177754
-0.00126736
-0.000759482
-0.000253003
0.000270198
0.000811188
0.00135388
0.00189939
0.0024488
0.00300306
0.00356309
0.00412963
0.00470328
0.00528445
0.00587333
0.00646985
0.00707363
0.00768397
0.00829982
0.00891985
0.00954238
0.0101656
0.0107874
0.0114053
0.012016
0.0126135
0.0131873
0.0137172
0.0141704
0.0145271
0.0150213
0.0158168
0.0149807
0.0130867
0.011678
0.0102037
0.00887269
0.00760227
0.00642479
0.00533297
0.00433873
0.00344862
0.00266829
0.00199489
0.00142419
0.000953865
0.000576692
0.00028256
6.94091e-05
-5.71165e-05
-0.000105477
-0.000101692
-6.94832e-05
-2.43575e-05
2.43681e-05
6.94673e-05
0.00010166
0.000105434
5.70688e-05
-6.94355e-05
-0.000282581
-0.000576713
-0.000953891
-0.0014242
-0.00199489
-0.00266829
-0.00344862
-0.00433873
-0.00533297
-0.0064248
-0.0076023
-0.00887273
-0.0102037
-0.011678
-0.0130867
-0.0149807
-0.0158168
-0.0150213
-0.0145271
-0.0141704
-0.0137172
-0.0131873
-0.0126135
-0.0120159
-0.0114053
-0.0107873
-0.0101656
-0.00954238
-0.00891983
-0.00829983
-0.00768398
-0.00707366
-0.00646989
-0.00587336
-0.00528447
-0.0047033
-0.00412965
-0.00356312
-0.00300308
-0.00244879
-0.00189938
-0.00135384
-0.000811151
-0.000270193
0.000288589
0.000866483
0.00144643
0.0020298
0.00261792
0.00321194
0.00381304
0.00442218
0.00504019
0.00566769
0.00630506
0.00695239
0.00760941
0.00827545
0.00894952
0.00963018
0.0103157
0.0110043
0.0116944
0.0123847
0.0130736
0.013758
0.0144294
0.0150623
0.0155765
0.0156849
0.0161287
0.0154775
0.0132229
0.0113532
0.00977125
0.00830891
0.00696905
0.00573045
0.00459575
0.00356534
0.00264405
0.00183583
0.00114221
0.000559396
8.38404e-05
-0.000284751
-0.000559232
-0.00075729
-0.000868775
-0.000853116
-0.000718533
-0.00052632
-0.0003167
-0.000105329
0.000105334
0.000316674
0.000526288
0.000718496
0.000853079
0.000868743
0.000757253
0.000559195
0.000284751
-8.38563e-05
-0.000559402
-0.0011422
-0.00183582
-0.00264402
-0.00356533
-0.00459577
-0.00573047
-0.0069691
-0.00830893
-0.00977125
-0.0113532
-0.0132229
-0.0154775
-0.0161287
-0.0156849
-0.0155765
-0.0150623
-0.0144294
-0.013758
-0.0130735
-0.0123846
-0.0116944
-0.0110043
-0.0103157
-0.00963018
-0.00894954
-0.00827547
-0.00760941
-0.00695242
-0.00630508
-0.00566771
-0.00504021
-0.00442219
-0.00381306
-0.00321196
-0.0026179
-0.00202979
-0.0014464
-0.000866446
-0.000288584
0.000308188
0.000925389
0.00154505
0.00216882
0.00279821
0.00343479
0.00407989
0.00473477
0.00540053
0.00607805
0.00676795
0.00747051
0.00818562
0.00891269
0.0096507
0.010398
0.0111527
0.0119127
0.0126767
0.0134451
0.0142196
0.0150038
0.0158024
0.0166225
0.0174878
0.0166073
0.0146137
0.0130203
0.0111643
0.00940468
0.00780733
0.00634491
0.00500893
0.00379157
0.00269213
0.00171168
0.000853523
0.000120533
-0.000487017
-0.000979382
-0.00136253
-0.00161897
-0.00177477
-0.00188825
-0.00193936
-0.00177321
-0.00139362
-0.000971605
-0.000567581
-0.000186236
0.000186231
0.00056756
0.000971568
0.00139358
0.00177317
0.00193933
0.00188822
0.00177474
0.00161896
0.00136252
0.000979382
0.000487023
-0.000120533
-0.000853507
-0.00171167
-0.00269216
-0.00379161
-0.00500895
-0.00634492
-0.00780733
-0.00940468
-0.0111643
-0.0130203
-0.0146137
-0.0166073
-0.0174878
-0.0166225
-0.0158024
-0.0150038
-0.0142196
-0.013445
-0.0126767
-0.0119127
-0.0111526
-0.010398
-0.00965072
-0.00891272
-0.00818562
-0.00747051
-0.00676798
-0.00607808
-0.00540056
-0.00473477
-0.00407988
-0.00343479
-0.00279823
-0.00216879
-0.00154503
-0.000925357
-0.000308172
0.000328956
0.000987873
0.0016497
0.00231634
0.00298969
0.00367153
0.00436359
0.00506738
0.00578435
0.00651565
0.00726223
0.00802463
0.00880296
0.00959682
0.010405
0.0112257
0.0120562
0.0128937
0.0137364
0.0145856
0.0154471
0.0163314
0.0172548
0.0182434
0.0174363
0.0149284
0.0127915
0.0109087
0.00908074
0.007354
0.00575853
0.00429526
0.00296253
0.00175939
0.000687087
-0.000252908
-0.00105629
-0.00171897
-0.0022341
-0.00263318
-0.00294382
-0.00306376
-0.00304354
-0.00309329
-0.00323922
-0.00291776
-0.00211981
-0.00140489
-0.000799313
-0.000259414
0.000259409
0.000799292
0.00140488
0.00211977
0.00291772
0.00323919
0.00309327
0.00304351
0.00306374
0.00294382
0.00263318
0.00223409
0.00171896
0.00105629
0.000252913
-0.000687113
-0.00175942
-0.00296255
-0.00429527
-0.00575853
-0.007354
-0.00908077
-0.0109087
-0.0127915
-0.0149284
-0.0174363
-0.0182434
-0.0172548
-0.0163314
-0.0154471
-0.0145856
-0.0137364
-0.0128937
-0.0120562
-0.0112257
-0.0104051
-0.00959684
-0.00880298
-0.00802463
-0.00726224
-0.00651567
-0.00578436
-0.00506737
-0.00436357
-0.00367153
-0.00298968
-0.00231632
-0.00164967
-0.000987852
-0.000328961
0.00035092
0.00105389
0.00176028
0.00247231
0.00319219
0.00392206
0.00466398
0.00541985
0.00619144
0.00698035
0.00778785
0.00861487
0.00946187
0.0103287
0.0112142
0.012116
0.0130305
0.0139524
0.0148777
0.0158074
0.0167506
0.0177242
0.0187519
0.017956
0.0153763
0.0129734
0.0107969
0.00881197
0.00695414
0.00521923
0.00361461
0.00214289
0.000805872
-0.000391927
-0.00144536
-0.00235524
-0.00311302
-0.00371644
-0.00411096
-0.0043917
-0.00473411
-0.00466773
-0.00426131
-0.00422146
-0.00502672
-0.00455702
-0.0027762
-0.00173768
-0.000970329
-0.000313148
0.000313137
0.000970319
0.00173766
0.00277617
0.00455699
0.00502667
0.00422142
0.00426129
0.00466772
0.0047341
0.0043917
0.00411095
0.00371643
0.00311302
0.00235523
0.00144535
0.000391912
-0.000805899
-0.00214289
-0.00361462
-0.00521924
-0.00695416
-0.00881201
-0.0107969
-0.0129734
-0.0153763
-0.017956
-0.0187518
-0.0177242
-0.0167506
-0.0158074
-0.0148777
-0.0139524
-0.0130305
-0.012116
-0.0112142
-0.0103287
-0.00946187
-0.00861486
-0.00778785
-0.00698036
-0.00619145
-0.00541984
-0.00466396
-0.00392205
-0.00319218
-0.00247228
-0.00176026
-0.00105387
-0.00035091
0.000374013
0.00112339
0.0018767
0.00263655
0.00340551
0.00418611
0.00498077
0.00579182
0.00662149
0.00747176
0.00834443
0.00924091
0.0101622
0.0111085
0.0120792
0.0130718
0.0140809
0.0150974
0.01611
0.0171166
0.0181306
0.0191757
0.0183716
0.0157465
0.0132376
0.0108748
0.00867973
0.0066446
0.00474926
0.00298786
0.00136127
-0.000130041
-0.00148431
-0.00268956
-0.00373002
-0.00462409
-0.00534334
-0.00594587
-0.00612723
-0.00611596
-0.00696279
-0.00664095
-0.00513918
-0.00453098
-0.00430058
-0.00371593
-0.00270768
-0.00181019
-0.00103728
-0.000337929
0.000337924
0.00103728
0.00181018
0.00270765
0.00371588
0.00430055
0.00453095
0.00513916
0.00664095
0.00696277
0.00611595
0.00612722
0.00594585
0.00534331
0.00462407
0.00373
0.00268954
0.00148431
0.000130025
-0.00136128
-0.00298788
-0.00474929
-0.00664462
-0.00867974
-0.0108748
-0.0132376
-0.0157465
-0.0183716
-0.0191757
-0.0181306
-0.0171166
-0.01611
-0.0150974
-0.0140809
-0.0130718
-0.0120792
-0.0111085
-0.0101622
-0.0092409
-0.00834442
-0.00747177
-0.00662149
-0.00579181
-0.00498075
-0.00418609
-0.00340548
-0.00263654
-0.00187667
-0.00112337
-0.000374023
0.000398227
0.00119625
0.00199879
0.00280884
0.00362937
0.00446331
0.00531353
0.00618282
0.00707386
0.00798921
0.0089312
0.00990188
0.010903
0.0119356
0.0130001
0.014095
0.0152145
0.0163427
0.0174511
0.0185277
0.0195949
0.0187784
0.0161091
0.013521
0.011037
0.008678
0.00645812
0.00438013
0.00244112
0.000641225
-0.00101814
-0.00254024
-0.00393238
-0.00516851
-0.00618418
-0.00709655
-0.00772371
-0.00863363
-0.00837447
-0.00702047
-0.00658374
-0.00601575
-0.00515575
-0.00449112
-0.00395572
-0.00332178
-0.00254542
-0.00176953
-0.00103722
-0.000341328
0.000341333
0.00103721
0.00176951
0.00254539
0.00332172
0.00395568
0.00449112
0.00515574
0.00601575
0.00658373
0.00702047
0.00837446
0.00863362
0.00772369
0.00709652
0.00618417
0.00516847
0.00393236
0.00254023
0.00101813
-0.00064123
-0.00244113
-0.00438015
-0.00645813
-0.008678
-0.011037
-0.013521
-0.0161091
-0.0187783
-0.0195949
-0.0185277
-0.0174511
-0.0163427
-0.0152145
-0.014095
-0.0130001
-0.0119356
-0.010903
-0.00990188
-0.00893119
-0.00798921
-0.00707386
-0.00618282
-0.00531351
-0.00446329
-0.00362936
-0.00280881
-0.00199877
-0.00119625
-0.000398238
0.000423554
0.00127239
0.00212635
0.00298889
0.0038634
0.00475323
0.00566171
0.00659214
0.00754776
0.00853171
0.00954698
0.0105964
0.0116825
0.0128076
0.0139741
0.015184
0.0164365
0.0177124
0.0189353
0.0200661
0.0192475
0.016533
0.0138678
0.0112775
0.00878199
0.00639757
0.00413616
0.00200504
9.90499e-06
-0.00184134
-0.00354068
-0.00509592
-0.00656083
-0.00790008
-0.00878032
-0.0098986
-0.00986972
-0.00872461
-0.00794908
-0.00705186
-0.00637732
-0.00572044
-0.00500945
-0.00435036
-0.00373432
-0.00309096
-0.00239878
-0.00169642
-0.00100729
-0.000333657
0.000333657
0.00100727
0.00169642
0.00239874
0.00309091
0.00373429
0.00435035
0.00500944
0.00572044
0.00637731
0.00705185
0.00794907
0.00872459
0.00986969
0.00989856
0.00878031
0.00790004
0.0065608
0.00509593
0.00354068
0.00184133
-9.91029e-06
-0.00200506
-0.00413616
-0.00639756
-0.00878198
-0.0112775
-0.0138678
-0.016533
-0.0192475
-0.0200661
-0.0189354
-0.0177124
-0.0164365
-0.015184
-0.0139741
-0.0128076
-0.0116825
-0.0105964
-0.00954697
-0.00853171
-0.00754778
-0.00659215
-0.0056617
-0.0047532
-0.00386338
-0.00298888
-0.00212634
-0.00127238
-0.000423559
0.000449902
0.00135165
0.00225919
0.00317642
0.00410715
0.00505528
0.00602463
0.00701898
0.00804216
0.009098
0.0101902
0.0113224
0.012498
0.0137205
0.0149942
0.0163276
0.0177401
0.019248
0.0206322
0.0198612
0.017098
0.0143434
0.0116401
0.00901113
0.00647205
0.00403519
0.0017107
-0.000492724
-0.00256461
-0.00448687
-0.00622919
-0.00777371
-0.00935591
-0.0111401
-0.0111935
-0.0100899
-0.00937391
-0.00850085
-0.00769544
-0.00690498
-0.00619347
-0.00551539
-0.0048429
-0.00419406
-0.0035639
-0.00292847
-0.00227751
-0.00162088
-0.000968206
-0.000321814
0.000321814
0.000968185
0.00162085
0.00227747
0.00292843
0.00356387
0.00419406
0.0048429
0.00551538
0.00619346
0.00690496
0.00769543
0.00850083
0.00937389
0.0100898
0.0111935
0.0111401
0.00935589
0.0077737
0.00622919
0.00448687
0.0025646
0.000492714
-0.0017107
-0.00403518
-0.00647205
-0.00901111
-0.0116401
-0.0143434
-0.0170981
-0.0198612
-0.0206322
-0.019248
-0.0177401
-0.0163276
-0.0149942
-0.0137205
-0.012498
-0.0113224
-0.0101902
-0.009098
-0.00804217
-0.00701898
-0.00602461
-0.00505528
-0.00410714
-0.0031764
-0.00225919
-0.00135164
-0.000449896
0.000477245
0.00143386
0.00239701
0.00337099
0.00436018
0.00536889
0.0064015
0.00746234
0.00855587
0.00968661
0.0108591
0.0120778
0.013347
0.0146702
0.0160505
0.0174965
0.0190614
0.0210298
0.0207951
0.0179546
0.0150488
0.0121937
0.00941224
0.00671253
0.00410141
0.00158656
-0.000824449
-0.00312457
-0.00530443
-0.00734021
-0.00915438
-0.0104625
-0.0120077
-0.0123608
-0.011014
-0.00995691
-0.00909422
-0.00826305
-0.00747545
-0.00672281
-0.00601538
-0.00533968
-0.00468344
-0.00404573
-0.00342133
-0.00280012
-0.00217636
-0.00155167
-0.000928989
-0.000309231
0.000309236
0.000928973
0.00155163
0.00217632
0.00280008
0.00342131
0.00404572
0.00468344
0.00533965
0.00601536
0.00672282
0.00747545
0.00826303
0.00909422
0.00995689
0.011014
0.0123608
0.0120076
0.0104625
0.0091544
0.00734022
0.00530442
0.00312457
0.000824449
-0.00158656
-0.00410141
-0.00671251
-0.00941222