/*--------------------------------*- C++ -*----------------------------------*\
  =========                 |
  \\      /  F ield         | OpenFOAM: The Open Source CFD Toolbox
   \\    /   O peration     | Website:  https://openfoam.org
    \\  /    A nd           | Version:  7
     \\/     M anipulation  |
\*---------------------------------------------------------------------------*/
FoamFile
{
    version     2.0;
    format      ascii;
    class       volScalarField;
    location    "0.032";
    object      gradTx;
}
// * * * * * * * * * * * * * * * * * * * * * * * * * * * * * * * * * * * * * //

dimensions      [0 -1 0 1 0 0 0];

internalField   nonuniform List<scalar> 
10000
(
0.00206456
0.00618602
0.0102846
0.0143453
0.0183528
0.0222923
0.0261492
0.0299089
0.0335573
0.0370806
0.0404655
0.0436988
0.046768
0.0496613
0.0523671
0.0548749
0.0571744
0.0592563
0.061112
0.0627338
0.0641148
0.0652488
0.0661309
0.0667568
0.0671233
0.067228
0.0670696
0.0666477
0.0659626
0.0650159
0.0638097
0.0623474
0.060633
0.0586719
0.0564705
0.0540362
0.0513779
0.0485055
0.0454302
0.0421641
0.0387199
0.0351111
0.0313517
0.0274564
0.0234409
0.0193219
0.0151173
0.0108459
0.00652671
0.00217892
-0.00217837
-0.00652611
-0.0108453
-0.0151167
-0.0193213
-0.0234403
-0.0274559
-0.0313512
-0.0351106
-0.0387194
-0.0421636
-0.0454298
-0.0485051
-0.0513774
-0.0540357
-0.05647
-0.0586715
-0.0606327
-0.062347
-0.0638094
-0.0650155
-0.0659623
-0.0666473
-0.0670693
-0.0672277
-0.067123
-0.0667565
-0.0661306
-0.0652486
-0.0641146
-0.0627336
-0.0611118
-0.0592561
-0.0571742
-0.0548747
-0.0523671
-0.0496612
-0.046768
-0.0436987
-0.0404654
-0.0370806
-0.0335573
-0.0299089
-0.0261492
-0.0222923
-0.0183528
-0.0143453
-0.0102847
-0.00618606
-0.00206456
0.00206741
0.00619452
0.0102988
0.014365
0.018378
0.022323
0.0261852
0.0299502
0.0336038
0.0371321
0.0405217
0.0437596
0.0468332
0.0497306
0.0524404
0.0549518
0.0572546
0.0593395
0.061198
0.0628221
0.064205
0.0653407
0.0662241
0.0668509
0.067218
0.067323
0.0671646
0.0667425
0.066057
0.0651096
0.0639025
0.0624389
0.060723
0.0587599
0.0565559
0.0541186
0.0514567
0.0485803
0.0455007
0.0422299
0.0387811
0.0351676
0.0314034
0.0275028
0.0234811
0.0193552
0.0151432
0.0108642
0.00653758
0.00218253
-0.00218196
-0.00653701
-0.0108636
-0.0151427
-0.0193547
-0.0234806
-0.0275022
-0.0314029
-0.0351671
-0.0387806
-0.0422294
-0.0455002
-0.0485799
-0.0514563
-0.0541182
-0.0565555
-0.0587595
-0.0607226
-0.0624385
-0.0639021
-0.0651092
-0.0660567
-0.0667422
-0.0671643
-0.0673227
-0.0672177
-0.0668506
-0.0662238
-0.0653405
-0.0642048
-0.0628219
-0.0611978
-0.0593394
-0.0572545
-0.0549516
-0.0524403
-0.0497306
-0.0468332
-0.0437595
-0.0405216
-0.037132
-0.0336037
-0.0299502
-0.0261853
-0.022323
-0.0183781
-0.014365
-0.0102988
-0.00619454
-0.0020674
0.00207306
0.00621149
0.010327
0.0144044
0.0184285
0.0223844
0.0262573
0.0300328
0.0336965
0.0372348
0.0406339
0.043881
0.0469634
0.0498692
0.0525867
0.0551053
0.0574148
0.0595058
0.0613696
0.0629984
0.0643853
0.0655242
0.0664101
0.0670388
0.067407
0.0675126
0.0673543
0.0669316
0.0662452
0.0652964
0.0640875
0.0626215
0.0609026
0.0589355
0.0567266
0.0542833
0.0516142
0.0487296
0.045641
0.042361
0.038903
0.0352804
0.0315068
0.0275958
0.023562
0.0194221
0.015195
0.0109007
0.00655906
0.0021896
-0.00218904
-0.00655849
-0.0109001
-0.0151945
-0.0194216
-0.0235614
-0.0275952
-0.0315063
-0.0352799
-0.0389025
-0.0423605
-0.0456405
-0.0487291
-0.0516137
-0.0542828
-0.0567262
-0.0589351
-0.0609022
-0.0626212
-0.0640872
-0.0652961
-0.0662449
-0.0669313
-0.0673539
-0.0675123
-0.0674067
-0.0670385
-0.0664098
-0.065524
-0.0643851
-0.0629982
-0.0613694
-0.0595056
-0.0574147
-0.0551052
-0.0525866
-0.0498691
-0.0469634
-0.043881
-0.0406339
-0.0372347
-0.0336965
-0.0300327
-0.0262573
-0.0223844
-0.0184285
-0.0144044
-0.010327
-0.00621153
-0.00207306
0.00208154
0.00623689
0.0103692
0.0144633
0.018504
0.0224762
0.0263651
0.0301563
0.0338354
0.0373884
0.0408019
0.0440628
0.0471583
0.0500765
0.0528057
0.0553352
0.0576546
0.0597546
0.0616264
0.0632621
0.0646549
0.0657987
0.0666883
0.0673196
0.0676895
0.0677959
0.0676374
0.067214
0.0665262
0.0655754
0.0643638
0.0628945
0.0611711
0.0591984
0.0569823
0.0545298
0.0518498
0.0489527
0.0458504
0.0425562
0.0390843
0.0354487
0.0316621
0.0277363
0.0236845
0.0195231
0.0152724
0.0109544
0.0065904
0.00219987
-0.00219931
-0.00658984
-0.0109539
-0.0152719
-0.0195226
-0.0236839
-0.0277358
-0.0316615
-0.0354482
-0.0390838
-0.0425557
-0.0458499
-0.0489522
-0.0518494
-0.0545294
-0.0569818
-0.059198
-0.0611707
-0.0628941
-0.0643635
-0.065575
-0.0665259
-0.0672137
-0.0676371
-0.0677956
-0.0676892
-0.0673193
-0.066688
-0.0657985
-0.0646547
-0.0632619
-0.0616262
-0.0597544
-0.0576545
-0.0553351
-0.0528056
-0.0500764
-0.0471583
-0.0440627
-0.0408019
-0.0373884
-0.0338353
-0.0301563
-0.0263651
-0.0224762
-0.018504
-0.0144634
-0.0103693
-0.0062369
-0.00208153
0.0020928
0.00627063
0.0104254
0.0145417
0.0186043
0.0225982
0.0265084
0.0303204
0.0340198
0.0375926
0.0410252
0.0443043
0.0474173
0.050352
0.0530968
0.0556406
0.0579733
0.0600852
0.0619676
0.0636127
0.0650132
0.0661632
0.0670577
0.0676924
0.0680643
0.0681714
0.0680127
0.0675881
0.0668982
0.0659448
0.0647299
0.0632564
0.0615276
0.0595479
0.0573224
0.054858
0.0521633
0.0492489
0.0461274
0.0428134
0.0393227
0.0356708
0.0318694
0.0279265
0.0238511
0.0196593
0.0153748
0.0110238
0.00662996
0.00221266
-0.00221208
-0.00662941
-0.0110233
-0.0153742
-0.0196587
-0.0238506
-0.027926
-0.0318688
-0.0356703
-0.0393222
-0.0428129
-0.0461269
-0.0492484
-0.0521628
-0.0548576
-0.057322
-0.0595475
-0.0615272
-0.063256
-0.0647295
-0.0659444
-0.0668979
-0.0675877
-0.0680124
-0.0681711
-0.068064
-0.0676921
-0.0670574
-0.066163
-0.065013
-0.0636124
-0.0619674
-0.0600851
-0.0579731
-0.0556405
-0.0530967
-0.0503519
-0.0474172
-0.0443042
-0.0410251
-0.0375926
-0.0340198
-0.0303204
-0.0265084
-0.0225982
-0.0186043
-0.0145417
-0.0104254
-0.00627065
-0.00209277
0.00210679
0.00631262
0.0104952
0.0146391
0.0187291
0.02275
0.0266867
0.0305247
0.0342494
0.0378467
0.0413031
0.044605
0.0477397
0.050695
0.0534591
0.0560209
0.05837
0.0604968
0.0623925
0.0640489
0.065459
0.0666168
0.067517
0.0681556
0.0685297
0.0686375
0.068478
0.0680516
0.067359
0.0664023
0.0651835
0.0637054
0.0619707
0.0599831
0.0577467
0.0552677
0.0525542
0.0496173
0.0464702
0.0431289
0.0396135
0.0359432
0.0321291
0.028171
0.0240673
0.0198328
0.0155003
0.011105
0.00667431
0.00222661
-0.00222604
-0.00667375
-0.0111045
-0.0154998
-0.0198322
-0.0240668
-0.0281705
-0.0321286
-0.0359427
-0.039613
-0.0431284
-0.0464697
-0.0496168
-0.0525538
-0.0552673
-0.0577463
-0.0599827
-0.0619703
-0.063705
-0.0651832
-0.066402
-0.0673587
-0.0680512
-0.0684777
-0.0686372
-0.0685295
-0.0681553
-0.0675167
-0.0666165
-0.0654588
-0.0640487
-0.0623923
-0.0604967
-0.0583699
-0.0560207
-0.0534589
-0.0506949
-0.0477396
-0.0446049
-0.041303
-0.0378467
-0.0342493
-0.0305247
-0.0266867
-0.02275
-0.0187291
-0.0146392
-0.0104952
-0.00631263
-0.00210679
0.00212351
0.00636272
0.0105785
0.0147554
0.0188781
0.0229311
0.0268995
0.0307685
0.0345234
0.0381501
0.0416347
0.0449639
0.0481246
0.0511045
0.0538916
0.0564749
0.0588437
0.0609883
0.0628996
0.0645696
0.065991
0.0671578
0.0680646
0.0687076
0.0690838
0.0691918
0.0690308
0.0686016
0.0679054
0.0669446
0.0657216
0.0642389
0.0624987
0.0605032
0.0582552
0.0557593
0.053023
0.0500577
0.046877
0.0434976
0.0399473
0.0362578
0.0324415
0.0284807
0.0243453
0.0200473
0.0156442
0.0111897
0.00671652
0.00223911
-0.00223857
-0.00671593
-0.0111892
-0.0156437
-0.0200468
-0.0243448
-0.0284802
-0.032441
-0.0362573
-0.0399468
-0.0434971
-0.0468765
-0.0500573
-0.0530226
-0.0557589
-0.0582548
-0.0605028
-0.0624983
-0.0642385
-0.0657213
-0.0669443
-0.0679051
-0.0686012
-0.0690305
-0.0691915
-0.0690836
-0.0687073
-0.0680643
-0.0671575
-0.0659908
-0.0645694
-0.0628994
-0.0609881
-0.0588435
-0.0564747
-0.0538915
-0.0511043
-0.0481245
-0.0449638
-0.0416346
-0.03815
-0.0345233
-0.0307684
-0.0268995
-0.0229311
-0.0188781
-0.0147555
-0.0105785
-0.00636273
-0.0021235
0.00214289
0.00642077
0.0106751
0.0148902
0.0190507
0.023141
0.0271462
0.031051
0.034841
0.0385017
0.0420192
0.0453799
0.0485708
0.0515792
0.0543932
0.0570013
0.059393
0.0615582
0.0634877
0.0651734
0.0666078
0.0677847
0.0686988
0.0693462
0.0697243
0.0698315
0.0696679
0.0692344
0.0685333
0.0675674
0.0663399
0.0648532
0.0631089
0.0611074
0.0588486
0.0563343
0.0535707
0.0505713
0.0473487
0.0439123
0.0403052
0.0365942
0.032804
0.0288817
0.0247144
0.020308
0.0157936
0.0112603
0.00674321
0.00224534
-0.00224479
-0.00674265
-0.0112598
-0.0157931
-0.0203075
-0.0247138
-0.0288812
-0.0328035
-0.0365937
-0.0403047
-0.0439118
-0.0473482
-0.0505708
-0.0535703
-0.0563339
-0.0588482
-0.061107
-0.0631085
-0.0648529
-0.0663395
-0.0675671
-0.0685329
-0.0692341
-0.0696676
-0.0698313
-0.069724
-0.069346
-0.0686985
-0.0677844
-0.0666075
-0.0651732
-0.0634875
-0.061558
-0.0593928
-0.0570012
-0.054393
-0.051579
-0.0485707
-0.0453798
-0.0420191
-0.0385016
-0.0348409
-0.031051
-0.0271462
-0.0231411
-0.0190507
-0.0148903
-0.0106751
-0.00642077
-0.00214288
0.00216484
0.00648659
0.0107846
0.0150431
0.0192465
0.0233791
0.0274259
0.0313715
0.0352012
0.0389005
0.0424554
0.0458519
0.049077
0.0521178
0.0549623
0.0575987
0.0600163
0.0622049
0.0641552
0.0658585
0.0673075
0.0684956
0.0694176
0.0700694
0.0704485
0.0705537
0.0703855
0.0699456
0.0692372
0.0682647
0.0670323
0.0655432
0.0637981
0.061795
0.059529
0.0569964
0.054199
0.0511608
0.0478957
0.0443688
0.0406484
0.0369013
0.0332008
0.0294409
0.0252478
0.0206154
0.0159144
0.011281
0.0067305
0.0022371
-0.00223653
-0.00672994
-0.0112805
-0.0159139
-0.0206149
-0.0252473
-0.0294404
-0.0332003
-0.0369008
-0.0406479
-0.0443683
-0.0478952
-0.0511603
-0.0541986
-0.0569959
-0.0595286
-0.0617946
-0.0637977
-0.0655428
-0.0670319
-0.0682644
-0.0692369
-0.0699452
-0.0703852
-0.0705534
-0.0704482
-0.0700691
-0.0694173
-0.0684954
-0.0673073
-0.0658583
-0.064155
-0.0622048
-0.0600162
-0.0575986
-0.0549621
-0.0521177
-0.0490769
-0.0458518
-0.0424553
-0.0389005
-0.0352012
-0.0313714
-0.0274259
-0.0233792
-0.0192465
-0.0150431
-0.0107846
-0.0064866
-0.00216484
0.00218933
0.00655997
0.0109067
0.0152135
0.0194647
0.0236446
0.0277377
0.0317288
0.0356029
0.0393453
0.0429418
0.0463784
0.0496417
0.0527188
0.0555972
0.0582654
0.060712
0.0629268
0.0649001
0.0666233
0.0680883
0.0692887
0.0702188
0.0708746
0.0712536
0.071355
0.0711795
0.0707298
0.0700107
0.0690286
0.0677902
0.0663007
0.0645606
0.0625654
0.0603013
0.0577547
0.0549073
0.0518242
0.0485605
0.0448852
0.0408956
0.0370495
0.0335553
0.0303417
0.0261416
0.0209271
0.0159185
0.0111842
0.00664021
0.00220232
-0.00220175
-0.00663966
-0.0111837
-0.015918
-0.0209265
-0.0261411
-0.0303411
-0.0335548
-0.037049
-0.0408951
-0.0448847
-0.0485601
-0.0518237
-0.0549068
-0.0577543
-0.0603009
-0.062565
-0.0645602
-0.0663003
-0.0677899
-0.0690282
-0.0700103
-0.0707295
-0.0711792
-0.0713547
-0.0712534
-0.0708743
-0.0702185
-0.0692884
-0.0680881
-0.066623
-0.0648999
-0.0629266
-0.0607118
-0.0582652
-0.0555971
-0.0527186
-0.0496416
-0.0463783
-0.0429417
-0.0393453
-0.0356029
-0.0317288
-0.0277377
-0.0236446
-0.0194647
-0.0152135
-0.0109067
-0.00655998
-0.00218933
0.00221625
0.0066407
0.0110409
0.015401
0.0197048
0.0239366
0.0280808
0.0321219
0.0360449
0.0398347
0.043477
0.0469577
0.0502631
0.0533802
0.0562962
0.0589992
0.0614779
0.0637217
0.0657206
0.0674655
0.0689483
0.0701619
0.0711005
0.0717597
0.0721371
0.072232
0.0720456
0.0715813
0.0708455
0.0698484
0.0686011
0.0671133
0.0653864
0.0634173
0.0611739
0.0586383
0.0556831
0.0525087
0.0494868
0.0455765
0.0408724
0.0367307
0.0335232
0.0321302
0.0279641
0.0209654
0.0155982
0.0108624
0.00642337
0.0021269
-0.00212634
-0.00642282
-0.0108619
-0.0155976
-0.0209649
-0.0279636
-0.0321297
-0.0335227
-0.0367302
-0.0408719
-0.045576
-0.0494863
-0.0525082
-0.0556827
-0.0586379
-0.0611735
-0.0634169
-0.0653861
-0.0671129
-0.0686008
-0.0698481
-0.0708451
-0.0715809
-0.0720453
-0.0722317
-0.0721368
-0.0717594
-0.0711002
-0.0701617
-0.0689481
-0.0674653
-0.0657204
-0.0637215
-0.0614778
-0.0589991
-0.056296
-0.05338
-0.050263
-0.0469576
-0.0434769
-0.0398346
-0.0360448
-0.0321219
-0.0280808
-0.0239366
-0.0197048
-0.015401
-0.0110409
-0.00664069
-0.00221625
0.00224554
0.00672845
0.0111869
0.0156048
0.0199659
0.0242542
0.0284539
0.0325495
0.0365255
0.040367
0.0440593
0.047588
0.0509394
0.0540999
0.0570569
0.0597981
0.0623118
0.0645873
0.0666142
0.0683832
0.0698854
0.0711133
0.0720605
0.0727223
0.0730962
0.0731817
0.0729801
0.0724944
0.0717323
0.0707104
0.0694466
0.0679616
0.0662547
0.064348
0.0621484
0.0597574
0.0565024
0.052874
0.0511427
0.0469154
0.0401575
0.0353616
0.0315682
0.0283411
0.0242812
0.0193031
0.0145967
0.0102101
0.00604414
0.00200172
-0.00200117
-0.00604359
-0.0102096
-0.0145961
-0.0193026
-0.0242807
-0.0283406
-0.0315677
-0.0353611
-0.040157
-0.0469149
-0.0511422
-0.0528736
-0.056502
-0.059757
-0.0621479
-0.0643476
-0.0662543
-0.0679612
-0.0694463
-0.0707101
-0.071732
-0.072494
-0.0729798
-0.0731814
-0.0730959
-0.072722
-0.0720603
-0.0711131
-0.0698852
-0.068383
-0.0666141
-0.0645871
-0.0623117
-0.0597979
-0.0570567
-0.0540998
-0.0509392
-0.0475879
-0.0440592
-0.040367
-0.0365255
-0.0325494
-0.0284539
-0.0242541
-0.0199658
-0.0156048
-0.0111869
-0.00672844
-0.00224553
0.00227707
0.00682296
0.0113441
0.0158243
0.020247
0.0245962
0.0288558
0.03301
0.0370433
0.0409405
0.0446867
0.0482672
0.0516681
0.0548757
0.0578769
0.0606593
0.063211
0.065521
0.0675785
0.0693738
0.0708975
0.0721412
0.0730974
0.0737607
0.0741287
0.0742017
0.0739809
0.0734655
0.0726613
0.0715979
0.0702989
0.0688198
0.0671141
0.0653667
0.0631142
0.0615463
0.0575107
0.0511697
0.0468826
0.0423874
0.0373517
0.0328785
0.0289467
0.0252927
0.0214372
0.0173076
0.0132298
0.0093059
0.00552311
0.00183099
-0.00183044
-0.00552258
-0.00930532
-0.0132292
-0.017307
-0.0214367
-0.0252922
-0.0289462
-0.032878
-0.0373512
-0.0423869
-0.0468822
-0.0511693
-0.0575103
-0.0615459
-0.0631138
-0.0653663
-0.0671137
-0.0688195
-0.0702985
-0.0715975
-0.0726609
-0.0734652
-0.0739806
-0.0742014
-0.0741284
-0.0737605
-0.0730971
-0.0721409
-0.0708973
-0.0693736
-0.0675783
-0.0655208
-0.0632109
-0.0606591
-0.0578767
-0.0548755
-0.051668
-0.0482671
-0.0446866
-0.0409404
-0.0370433
-0.0330099
-0.0288557
-0.0245961
-0.020247
-0.0158243
-0.0113441
-0.00682294
-0.00227706
0.00231074
0.00692389
0.0115121
0.0160587
0.0205472
0.0249614
0.029285
0.0335019
0.0375965
0.0415532
0.045357
0.048993
0.0524469
0.0557048
0.0587534
0.06158
0.0641725
0.0665196
0.0686104
0.0704346
0.0719823
0.0732437
0.0742099
0.0748737
0.0752324
0.0752895
0.0750492
0.074498
0.0736225
0.0724953
0.0711077
0.0696836
0.0677972
0.0666752
0.0631856
0.0573538
0.0523898
0.0472442
0.0426786
0.038264
0.0338665
0.029753
0.0259587
0.0223683
0.0188016
0.0152077
0.0116695
0.00823322
0.0048954
0.00162425
-0.0016237
-0.00489487
-0.00823268
-0.0116689
-0.0152071
-0.018801
-0.0223678
-0.0259582
-0.0297525
-0.033866
-0.0382635
-0.0426781
-0.0472437
-0.0523894
-0.0573533
-0.0631852
-0.0666748
-0.0677968
-0.0696832
-0.0711073
-0.0724949
-0.0736221
-0.0744976
-0.0750488
-0.0752892
-0.0752321
-0.0748734
-0.0742096
-0.0732435
-0.0719821
-0.0704344
-0.0686102
-0.0665194
-0.0641724
-0.0615798
-0.0587532
-0.0557046
-0.0524467
-0.0489928
-0.0453569
-0.0415531
-0.0375964
-0.0335018
-0.0292849
-0.0249614
-0.0205472
-0.0160587
-0.011512
-0.00692386
-0.00231073
0.00234642
0.00703086
0.01169
0.0163071
0.0208655
0.0253486
0.02974
0.0340234
0.0381829
0.0422029
0.0460678
0.0497627
0.0532729
0.0565843
0.0596833
0.0625568
0.0651928
0.0675795
0.0697062
0.0715623
0.0731373
0.0744199
0.0753982
0.0760611
0.0764041
0.076439
0.0761909
0.0756172
0.0745984
0.0734178
0.0717198
0.0707786
0.0674889
0.0618835
0.0571433
0.0521027
0.0472797
0.0425883
0.0381903
0.0340064
0.0299959
0.0262209
0.0226914
0.0193557
0.0161393
0.0130091
0.00997477
0.00703956
0.00418771
0.0013899
-0.00138936
-0.00418718
-0.00703903
-0.00997422
-0.0130086
-0.0161388
-0.0193552
-0.0226909
-0.0262204
-0.0299954
-0.0340059
-0.0381898
-0.0425879
-0.0472793
-0.0521023
-0.0571429
-0.0618831
-0.0674885
-0.0707782
-0.0717195
-0.0734174
-0.0745981
-0.0756168
-0.0761906
-0.0764387
-0.0764038
-0.0760608
-0.0753979
-0.0744196
-0.073137
-0.0715621
-0.069706
-0.0675793
-0.0651926
-0.0625567
-0.0596831
-0.0565842
-0.0532728
-0.0497626
-0.0460677
-0.0422028
-0.0381828
-0.0340233
-0.0297399
-0.0253485
-0.0208655
-0.0163071
-0.01169
-0.00703082
-0.00234642
0.00238401
0.00714348
0.0118774
0.0165687
0.0212006
0.0257562
0.030219
0.0345725
0.0388005
0.0428871
0.0468166
0.0505736
0.0541433
0.0575112
0.0606632
0.0635862
0.0662678
0.0686964
0.0708613
0.0727524
0.0743591
0.0756688
0.0766651
0.0773274
0.0776396
0.0776246
0.0774098
0.0769324
0.0754888
0.0746114
0.0713332
0.065739
0.061025
0.0560198
0.0512141
0.0464672
0.0418904
0.0375094
0.0333747
0.0294769
0.0258053
0.0223712
0.0191696
0.0161727
0.0133491
0.0106817
0.00815598
0.00574528
0.0034158
0.00113363
-0.00113309
-0.00341526
-0.00574475
-0.00815547
-0.0106812
-0.0133486
-0.0161722
-0.0191691
-0.0223708
-0.0258048
-0.0294764
-0.0333742
-0.0375089
-0.0418899
-0.0464668
-0.0512137
-0.0560194
-0.0610246
-0.0657386
-0.0713328
-0.074611
-0.0754884
-0.0769321
-0.0774095
-0.0776243
-0.0776393
-0.0773271
-0.0766648
-0.0756686
-0.0743589
-0.0727522
-0.0708611
-0.0686962
-0.0662676
-0.0635861
-0.0606631
-0.057511
-0.0541432
-0.0505735
-0.0468165
-0.042887
-0.0388005
-0.0345725
-0.0302189
-0.0257562
-0.0212005
-0.0165687
-0.0118774
-0.00714344
-0.00238398
0.00242332
0.00726133
0.0120734
0.0168424
0.0215512
0.0261828
0.0307204
0.0351472
0.039447
0.0436034
0.0476005
0.0514228
0.0550549
0.0584819
0.0616895
0.0646642
0.0673932
0.069865
0.0720698
0.0739985
0.0756422
0.0769889
0.0780181
0.0786914
0.0789462
0.0787516
0.0786308
0.0789521
0.0755542
0.069707
0.0647761
0.0595982
0.0546507
0.0497764
0.0450655
0.04052
0.0361814
0.0320771
0.0282302
0.0246428
0.0213112
0.0182342
0.0153977
0.0127794
0.0103736
0.0081898
0.00620545
0.00435822
0.00258979
0.000859686
-0.000859167
-0.00258926
-0.00435768
-0.00620491
-0.00818928
-0.0103731
-0.0127789
-0.0153971
-0.0182337
-0.0213107
-0.0246423
-0.0282298
-0.0320766
-0.0361809
-0.0405196
-0.0450651
-0.049776
-0.0546503
-0.0595978
-0.0647757
-0.0697066
-0.0755539
-0.0789518
-0.0786305
-0.0787513
-0.0789459
-0.0786911
-0.0780178
-0.0769887
-0.0756419
-0.0739982
-0.0720696
-0.0698649
-0.067393
-0.064664
-0.0616894
-0.0584817
-0.0550547
-0.0514226
-0.0476004
-0.0436033
-0.0394469
-0.0351471
-0.0307203
-0.0261828
-0.0215512
-0.0168424
-0.0120734
-0.00726127
-0.00242331
0.00246421
0.00738393
0.0122774
0.0171272
0.021916
0.0266266
0.031242
0.0357452
0.0401196
0.0443487
0.0484164
0.0523068
0.056004
0.0594929
0.0627585
0.0657867
0.0685642
0.0710796
0.0733239
0.0752907
0.0769755
0.0783728
0.0794671
0.080209
0.0804336
0.0795344
0.0791363
0.0761712
0.0695636
0.063648
0.0582495
0.0530333
0.0480306
0.0432173
0.0386182
0.0342508
0.0301395
0.0263042
0.022757
0.0194957
0.0165164
0.01382
0.0113787
0.00915206
0.00715991
0.00548701
0.00410975
0.00288696
0.00172241
0.000573526
-0.000572997
-0.00172188
-0.00288644
-0.00410923
-0.00548648
-0.0071594
-0.00915157
-0.0113782
-0.0138195
-0.0165159
-0.0194952
-0.0227566
-0.0263038
-0.030139
-0.0342503
-0.0386178
-0.0432168
-0.0480302
-0.0530329
-0.0582491
-0.0636476
-0.0695633
-0.0761708
-0.079136
-0.0795341
-0.0804333
-0.0802087
-0.0794668
-0.0783725
-0.0769753
-0.0752904
-0.0733237
-0.0710795
-0.068564
-0.0657865
-0.0627583
-0.0594927
-0.0560038
-0.0523066
-0.0484163
-0.0443486
-0.0401195
-0.0357451
-0.0312419
-0.0266266
-0.021916
-0.0171271
-0.0122773
-0.00738387
-0.00246421
0.00250656
0.0075108
0.0124885
0.0174219
0.0222935
0.0270859
0.0317817
0.0363639
0.0408156
0.0451202
0.049261
0.0532221
0.0569871
0.0605404
0.0638663
0.0669498
0.0697764
0.0723342
0.0746146
0.0766147
0.078338
0.0797935
0.0809952
0.0819648
0.0827621
0.0795349
0.073686
0.0685215
0.062642
0.0568604
0.0513533
0.0460903
0.041078
0.0363205
0.0318347
0.027638
0.0237498
0.0201857
0.0169527
0.0140324
0.0114135
0.00913368
0.00713423
0.0052847
0.00362549
0.00248931
0.00186099
0.00135873
0.00084013
0.00028526
-0.00028473
-0.000839621
-0.00135821
-0.00186048
-0.00248882
-0.00362497
-0.00528417
-0.00713373
-0.0091332
-0.011413
-0.0140319
-0.0169523
-0.0201852
-0.0237493
-0.0276375
-0.0318343
-0.0363201
-0.0410776
-0.04609
-0.051353
-0.0568601
-0.0626417
-0.0685212
-0.0736857
-0.0795346
-0.0827618
-0.0819645
-0.0809949
-0.0797933
-0.0783377
-0.0766145
-0.0746145
-0.0723341
-0.0697763
-0.0669496
-0.0638662
-0.0605402
-0.056987
-0.0532219
-0.0492609
-0.04512
-0.0408155
-0.0363638
-0.0317816
-0.0270858
-0.0222934
-0.0174218
-0.0124884
-0.00751077
-0.00250654
0.00255013
0.00764147
0.0127058
0.0177253
0.0226821
0.0275586
0.0323373
0.0370007
0.041532
0.0459142
0.0501306
0.0541647
0.0580001
0.0616205
0.0650094
0.0681502
0.0710268
0.0736245
0.0759337
0.077954
0.0796973
0.0811888
0.082468
0.0835979
0.0805723
0.0736289
0.0672917
0.0613514
0.0554145
0.0496168
0.0440561
0.0387629
0.0337578
0.0290593
0.0246873
0.0206584
0.0169924
0.0137054
0.0108162
0.00825769
0.00596915
0.00417072
0.00274802
0.00123887
-0.000417312
-0.00100163
-0.000502121
-0.000145086
-1.10114e-06
1.36266e-05
-1.31078e-05
1.61995e-06
0.000145594
0.00050264
0.00100212
0.00041782
-0.00123835
-0.00274751
-0.00417022
-0.00596866
-0.00825722
-0.0108158
-0.013705
-0.016992
-0.020658
-0.0246869
-0.029059
-0.0337574
-0.0387625
-0.0440557
-0.0496164
-0.0554142
-0.0613511
-0.0672913
-0.0736286
-0.080572
-0.0835976
-0.0824677
-0.0811885
-0.0796971
-0.0779538
-0.0759335
-0.0736243
-0.0710266
-0.0681501
-0.0650092
-0.0616204
-0.058
-0.0541645
-0.0501304
-0.045914
-0.0415319
-0.0370006
-0.0323371
-0.0275585
-0.022682
-0.0177252
-0.0127058
-0.00764143
-0.00255014
0.00259483
0.00777534
0.0129285
0.0180362
0.0230802
0.0280428
0.0329062
0.0376528
0.0422655
0.0467271
0.051021
0.0551303
0.0590385
0.0627289
0.0661841
0.0693859
0.0723147
0.0749505
0.077278
0.0792961
0.0810248
0.0825033
0.0837881
0.0808355
0.0737629
0.0668544
0.0602685
0.0539745
0.0478717
0.0419865
0.0363667
0.0310456
0.0260506
0.021411
0.0171537
0.0132887
0.00984265
0.00682547
0.00435695
0.00222867
5.68889e-05
-0.00114202
-0.0015239
-0.00262962
-0.00549827
-0.00554525
-0.00270024
-0.00142096
-0.000704689
-0.000213812
0.000214331
0.000705187
0.00142147
0.00270075
0.00554577
0.00549878
0.00263012
0.00152439
0.00114252
-5.63806e-05
-0.00222819
-0.00435648
-0.00682502
-0.00984219
-0.0132882
-0.0171533
-0.0214106
-0.0260502
-0.0310452
-0.0363663
-0.0419862
-0.0478714
-0.0539742
-0.0602682
-0.0668541
-0.0737626
-0.0808352
-0.0837878
-0.0825031
-0.0810246
-0.0792959
-0.0772778
-0.0749503
-0.0723145
-0.0693857
-0.066184
-0.0627287
-0.0590384
-0.0551301
-0.0510208
-0.046727
-0.0422654
-0.0376527
-0.0329061
-0.0280427
-0.0230801
-0.0180361
-0.0129285
-0.00777532
-0.00259482
0.0026404
0.00791194
0.0131557
0.0183532
0.0234862
0.0285364
0.033486
0.0383172
0.0430126
0.047555
0.0519277
0.0561139
0.060097
0.0638603
0.0673862
0.0706552
0.0736432
0.0763203
0.0786555
0.0806409
0.0823056
0.0837051
0.0807891
0.0736502
0.0665225
0.0595246
0.0527528
0.0462354
0.0399685
0.0339749
0.0282876
0.0229345
0.0179417
0.0133535
0.00921815
0.00550536
0.00228248
-0.000573981
-0.0024058
-0.00371402
-0.00677909
-0.00722156
-0.00502509
-0.00468752
-0.00510233
-0.00468714
-0.00330011
-0.00211352
-0.00117152
-0.000374865
0.000375373
0.00117204
0.00211404
0.00330064
0.00468764
0.00510282
0.00468802
0.00502562
0.00722206
0.00677957
0.00371448
0.00240625
0.000574415
-0.00228202
-0.00550494
-0.00921776
-0.0133531
-0.0179413
-0.0229341
-0.0282873
-0.0339745
-0.0399682
-0.0462351
-0.0527524
-0.0595242
-0.0665222
-0.0736499
-0.0807889
-0.0837048
-0.0823054
-0.0806406
-0.0786553
-0.0763201
-0.073643
-0.070655
-0.0673861
-0.0638601
-0.0600968
-0.0561137
-0.0519275
-0.0475549
-0.0430124
-0.038317
-0.0334859
-0.0285363
-0.0234861
-0.0183532
-0.0131557
-0.00791192
-0.00264039
0.0026867
0.00805073
0.0133865
0.0186752
0.0238983
0.0290373
0.0340741
0.0389907
0.0437695
0.0483935
0.0528457
0.0571095
0.0611689
0.0650076
0.0686092
0.071955
0.0750187
0.0777551
0.080094
0.082006
0.0835411
0.0806616
0.0734663
0.0661833
0.0589178
0.0517682
0.0448148
0.0381088
0.0316839
0.0255761
0.0198191
0.0144312
0.00941771
0.00485196
0.000885965
-0.00272732
-0.00559153
-0.00893519
-0.00962459
-0.00783043
-0.00791618
-0.00762113
-0.00660594
-0.00593821
-0.0054838
-0.00475515
-0.00366611
-0.00253899
-0.00148014
-0.000485265
0.000485795
0.00148065
0.0025395
0.0036666
0.00475565
0.00548432
0.00593873
0.00660643
0.00762163
0.00791666
0.00783089
0.00962506
0.00893564
0.00559196
0.00272773
-0.000885552
-0.00485157
-0.00941732
-0.0144309
-0.0198187
-0.0255758
-0.0316836
-0.0381084
-0.0448145
-0.0517679
-0.0589175
-0.066183
-0.073466
-0.0806614
-0.0835409
-0.0820057
-0.0800938
-0.0777549
-0.0750185
-0.0719548
-0.068609
-0.0650074
-0.0611687
-0.0571094
-0.0528455
-0.0483933
-0.0437694
-0.0389905
-0.0340739
-0.0290372
-0.0238982
-0.0186751
-0.0133864
-0.00805068
-0.0026867
0.00273357
0.00819114
0.0136199
0.0190008
0.0243149
0.0295434
0.0346678
0.0396701
0.0445326
0.0492379
0.0537694
0.0581108
0.0622463
0.0661611
0.0698414
0.0732751
0.0764452
0.0792974
0.0816565
0.0834338
0.0806268
0.0733833
0.0659574
0.0584619
0.0509963
0.0436494
0.0364967
0.0295995
0.0230106
0.0167828
0.0109634
0.00555954
0.000473693
-0.00420215
-0.00773546
-0.011631
-0.0128976
-0.0116086
-0.0109861
-0.00998116
-0.00935251
-0.00866545
-0.00777382
-0.00691811
-0.00608849
-0.00514049
-0.00403697
-0.00287302
-0.00171111
-0.000567353
0.000567851
0.00171162
0.00287355
0.00403748
0.00514099
0.00608901
0.00691862
0.0077743
0.00866597
0.009353
0.00998161
0.0109865
0.011609
0.012898
0.0116315
0.00773589
0.00420254
-0.000473322
-0.00555916
-0.010963
-0.0167825
-0.0230103
-0.0295992
-0.0364964
-0.0436491
-0.0509961
-0.0584616
-0.0659571
-0.073383
-0.0806265
-0.0834335
-0.0816562
-0.0792972
-0.076445
-0.0732749
-0.0698413
-0.0661609
-0.0622461
-0.0581106
-0.0537692
-0.0492378
-0.0445324
-0.03967
-0.0346677
-0.0295432
-0.0243148
-0.0190007
-0.0136199
-0.00819109
-0.00273357
0.00278082
0.00833268
0.0138552
0.0193288
0.0247343
0.0300525
0.0352647
0.0403524
0.0452979
0.0500838
0.0546933
0.0591106
0.0633202
0.067308
0.071063
0.0745853
0.0779003
0.0810285
0.0834829
0.0808767
0.0735934
0.0660094
0.058278
0.050508
0.0427903
0.0352058
0.0278268
0.020718
0.013943
0.00757636
0.00171348
-0.00358459
-0.00881227
-0.0143103
-0.015892
-0.0148044
-0.0143978
-0.0135062
-0.0126289
-0.0116644
-0.0107637
-0.00983863
-0.00883863
-0.0078131
-0.00676081
-0.00563908
-0.00443531
-0.0031816
-0.00190996
-0.000636217
0.000636736
0.00191046
0.00318211
0.00443582
0.00563958
0.00676132
0.0078136
0.00883914
0.00983913
0.0107642
0.0116649
0.0126294
0.0135067
0.0143982
0.0148048
0.0158924
0.0143107
0.00881267
0.00358497
-0.00171311
-0.007576
-0.0139426
-0.0207177
-0.0278265
-0.0352055
-0.04279
-0.0505077
-0.0582777
-0.0660092
-0.0735932
-0.0808765
-0.0834827
-0.0810283
-0.0779001
-0.0745851
-0.0710628
-0.0673078
-0.0633201
-0.0591104
-0.0546932
-0.0500836
-0.0452978
-0.0403523
-0.0352646
-0.0300524
-0.0247342
-0.0193287
-0.0138551
-0.00833264
-0.00278082
0.0028283
0.00847488
0.0140915
0.0196581
0.0251551
0.0305629
0.0358624
0.0410347
0.0460619
0.0509265
0.0556119
0.0601024
0.0643826
0.0684365
0.0722486
0.0758172
0.0792392
0.0831133
0.0817952
0.0744346
0.066577
0.0585382
0.0504312
0.0423344
0.0343213
0.0264635
0.0188286
0.0114781
0.00447371
-0.00209752
-0.00803821
-0.0127124
-0.0177175
-0.0199592
-0.0183381
-0.0171685
-0.0162615
-0.0152775
-0.0142558
-0.0131898
-0.0121139
-0.0110097
-0.00986067
-0.00867512
-0.00745149
-0.00617745
-0.00485058
-0.0034846
-0.00209679
-0.000699565
0.000700073
0.00209727
0.00348511
0.00485108
0.00617798
0.00745202
0.00867563
0.00986118
0.0110101
0.0121144
0.0131903
0.0142562
0.015278
0.0162619
0.0171689
0.0183385
0.0199595
0.0177179
0.0127128
0.00803861
0.00209789
-0.00447336
-0.0114778
-0.0188283
-0.0264632
-0.034321
-0.0423341
-0.0504309
-0.0585379
-0.0665767
-0.0744344
-0.081795
-0.083113
-0.079239
-0.075817
-0.0722484
-0.0684362
-0.0643823
-0.0601022
-0.0556118
-0.0509263
-0.0460617
-0.0410346
-0.0358622
-0.0305628
-0.025155
-0.019658
-0.0140914
-0.00847484
-0.0028283
0.00287584
0.00861728
0.014328
0.0199877
0.0255759
0.0310729
0.0364588
0.0417144
0.0468213
0.051762
0.0565201
0.0610804
0.0654281
0.0695452
0.073398
0.0768979
0.0798101
0.0818118
0.0775775
0.0681962
0.059489
0.0509232
0.0424028
0.0339457
0.0256045
0.0174437
0.00952756
0.00190858
-0.00537938
-0.0123219
-0.0189491
-0.0213815
-0.0209957
-0.0210725
-0.0201888
-0.019137
-0.0180782
-0.0169721
-0.0158213
-0.014629
-0.0134052
-0.012147
-0.0108498
-0.00951469
-0.00814102
-0.00672621
-0.00527178
-0.00378571
-0.00227874
-0.000760561
0.000761059
0.00227925
0.00378622
0.00527229
0.00672674
0.00814154
0.00951519
0.0108503
0.0121475
0.0134057
0.0146295
0.0158218
0.0169725
0.0180786
0.0191375
0.0201892
0.0210729
0.0209961
0.0213819
0.0189495
0.0123223
0.00537972
-0.00190826
-0.00952726
-0.0174434
-0.0256042
-0.0339454
-0.0424025
-0.0509229
-0.0594888
-0.068196
-0.0775772
-0.0818116
-0.0798098
-0.0768977
-0.0733978
-0.069545
-0.0654279
-0.0610801
-0.0565199
-0.0517618
-0.0468212
-0.0417142
-0.0364586
-0.0310728
-0.0255758
-0.0199876
-0.014328
-0.00861726
-0.00287584
0.00292333
0.00875952
0.0145642
0.0203166
0.0259957
0.031581
0.0370522
0.0423894
0.0475735
0.0525866
0.0574126
0.0620378
0.0664516
0.0706464
0.0746093
0.0782572
0.0809658
0.0781685
0.0699505
0.0610171
0.0520381
0.0430845
0.0341751
0.0253464
0.0166532
0.00816428
-4.74656e-05
-0.00793263
-0.0154839
-0.022735
-0.0256563
-0.0244623
-0.0236521
-0.0229914
-0.0220618
-0.0209769
-0.0198159
-0.0185944
-0.017321
-0.0160016
-0.014642
-0.0132435
-0.0118064
-0.0103314
-0.00881955
-0.00727179
-0.0056912
-0.00408383
-0.00245753
-0.000820203
0.000820701
0.00245803
0.00408435
0.0056917
0.0072723
0.00882007
0.0103319
0.0118068
0.013244
0.0146424
0.0160021
0.0173215
0.0185949
0.0198163
0.0209773
0.0220622
0.0229918
0.0236525
0.0244627
0.0256567
0.0227354
0.0154842
0.00793296