/*--------------------------------*- C++ -*----------------------------------*\
  =========                 |
  \\      /  F ield         | OpenFOAM: The Open Source CFD Toolbox
   \\    /   O peration     | Website:  https://openfoam.org
    \\  /    A nd           | Version:  7
     \\/     M anipulation  |
\*---------------------------------------------------------------------------*/
FoamFile
{
    version     2.0;
    format      ascii;
    class       volScalarField;
    location    "0.032";
    object      gradTy;
}
// * * * * * * * * * * * * * * * * * * * * * * * * * * * * * * * * * * * * * //

dimensions      [0 -1 0 1 0 0 0];

internalField   nonuniform List<scalar> 
10000
(
0.00206457
0.00206741
0.00207307
0.00208153
0.0020928
0.00210679
0.0021235
0.00214287
0.00216484
0.00218932
0.00221626
0.00224554
0.00227708
0.00231074
0.00234643
0.002384
0.0024233
0.00246422
0.00250655
0.00255015
0.00259483
0.00264042
0.00268674
0.00273359
0.00278082
0.00282829
0.00287584
0.00292334
0.00297067
0.00301769
0.00306434
0.00311045
0.00315586
0.00320041
0.00324381
0.00328585
0.00332623
0.00336469
0.00340101
0.00343509
0.00346685
0.00349629
0.0035234
0.003548
0.00356974
0.00358823
0.00360306
0.00361414
0.00362143
0.00362502
0.00362504
0.00362142
0.00361415
0.00360308
0.00358821
0.00356974
0.00354799
0.0035234
0.0034963
0.00346683
0.00343509
0.00340101
0.00336468
0.00332622
0.00328584
0.00324381
0.00320039
0.00315585
0.00311044
0.00306433
0.0030177
0.00297067
0.00292334
0.00287584
0.0028283
0.00278083
0.00273358
0.00268671
0.0026404
0.00259483
0.00255015
0.00250655
0.00246422
0.0024233
0.00238397
0.00234643
0.00231074
0.00227708
0.00224554
0.00221626
0.00218934
0.00216484
0.00214289
0.00212351
0.0021068
0.0020928
0.00208154
0.00207307
0.00206741
0.00206458
0.00618604
0.00619454
0.00621151
0.00623689
0.00627064
0.00631263
0.00636271
0.00642075
0.00648659
0.00655998
0.00664069
0.00672844
0.00682296
0.00692387
0.00703086
0.00714347
0.00726132
0.0073839
0.00751079
0.00764145
0.00777536
0.00791195
0.00805073
0.00819114
0.00833268
0.00847487
0.00861729
0.00875953
0.00890125
0.0090421
0.00918175
0.00931986
0.00945593
0.00958938
0.00971951
0.00984555
0.00996658
0.0100818
0.0101906
0.0102926
0.0103876
0.0104757
0.0105569
0.0106308
0.0106962
0.0107519
0.0107965
0.0108296
0.0108513
0.010862
0.0108619
0.0108513
0.0108296
0.0107965
0.0107519
0.0106962
0.0106308
0.0105569
0.0104757
0.0103876
0.0102926
0.0101906
0.0100818
0.00996656
0.00984553
0.0097195
0.00958934
0.00945591
0.00931983
0.00918174
0.00904207
0.0089012
0.00875951
0.00861727
0.00847485
0.00833267
0.00819113
0.00805072
0.00791194
0.00777533
0.00764143
0.00751077
0.00738389
0.0072613
0.00714346
0.00703083
0.00692387
0.00682295
0.00672846
0.00664071
0.00655998
0.0064866
0.00642076
0.00636272
0.00631263
0.00627066
0.00623693
0.00621155
0.00619458
0.00618607
0.0102847
0.0102988
0.010327
0.0103693
0.0104254
0.0104952
0.0105785
0.0106751
0.0107846
0.0109067
0.0110409
0.0111869
0.0113441
0.0115121
0.01169
0.0118774
0.0120734
0.0122774
0.0124885
0.0127058
0.0129285
0.0131557
0.0133865
0.0136199
0.0138552
0.0140914
0.014328
0.0145642
0.0147995
0.0150334
0.0152654
0.0154947
0.0157209
0.0159429
0.0161594
0.0163692
0.0165706
0.0167623
0.016943
0.0171121
0.0172694
0.0174153
0.0175504
0.017674
0.017784
0.0178774
0.0179519
0.0180066
0.0180421
0.0180594
0.0180594
0.0180421
0.0180066
0.0179518
0.0178774
0.017784
0.017674
0.0175504
0.0174153
0.0172693
0.0171121
0.016943
0.0167623
0.0165706
0.0163692
0.0161594
0.0159428
0.0157208
0.0154947
0.0152653
0.0150334
0.0147995
0.0145642
0.014328
0.0140914
0.0138551
0.0136199
0.0133864
0.0131557
0.0129285
0.0127058
0.0124884
0.0122773
0.0120734
0.0118773
0.01169
0.011512
0.0113441
0.0111869
0.011041
0.0109067
0.0107846
0.0106751
0.0105786
0.0104952
0.0104254
0.0103693
0.010327
0.0102988
0.0102847
0.0143453
0.014365
0.0144044
0.0144633
0.0145417
0.0146392
0.0147555
0.0148902
0.0150431
0.0152135
0.015401
0.0156048
0.0158243
0.0160587
0.0163071
0.0165687
0.0168424
0.0171272
0.0174219
0.0177253
0.0180362
0.0183532
0.0186752
0.0190008
0.0193288
0.0196581
0.0199876
0.0203166
0.0206441
0.0209696
0.0212925
0.021612
0.0219273
0.0222371
0.0225396
0.0228328
0.0231143
0.0233819
0.0236336
0.0238683
0.024086
0.0242881
0.0244764
0.0246506
0.0248071
0.0249398
0.0250443
0.0251196
0.0251675
0.0251905
0.0251905
0.0251675
0.0251196
0.0250443
0.0249398
0.0248071
0.0246506
0.0244764
0.0242881
0.024086
0.0238683
0.0236336
0.0233819
0.0231143
0.0228328
0.0225396
0.022237
0.0219272
0.021612
0.0212924
0.0209696
0.0206441
0.0203165
0.0199876
0.0196581
0.0193288
0.0190007
0.0186751
0.0183532
0.0180361
0.0177252
0.0174218
0.0171271
0.0168424
0.0165687
0.0163071
0.0160586
0.0158243
0.0156048
0.015401
0.0152135
0.0150431
0.0148903
0.0147555
0.0146392
0.0145417
0.0144634
0.0144044
0.014365
0.0143453
0.0183528
0.018378
0.0184285
0.018504
0.0186043
0.0187291
0.0188781
0.0190507
0.0192465
0.0194647
0.0197048
0.0199658
0.020247
0.0205473
0.0208655
0.0212006
0.0215512
0.021916
0.0222935
0.0226821
0.0230802
0.0234862
0.0238983
0.0243149
0.0247343
0.0251551
0.0255759
0.0259957
0.0264135
0.0268286
0.0272404
0.0276483
0.0280513
0.0284479
0.0288359
0.0292123
0.0295738
0.0299167
0.0302384
0.0305365
0.0308111
0.0310657
0.0313056
0.0315327
0.0317403
0.0319155
0.03205
0.0321435
0.0322006
0.0322274
0.0322274
0.0322006
0.0321435
0.03205
0.0319155
0.0317403
0.0315327
0.0313056
0.0310657
0.0308111
0.0305365
0.0302384
0.0299167
0.0295738
0.0292123
0.0288359
0.0284479
0.0280513
0.0276482
0.0272404
0.0268285
0.0264134
0.0259957
0.0255759
0.025155
0.0247342
0.0243148
0.0238982
0.0234861
0.0230802
0.022682
0.0222934
0.021916
0.0215512
0.0212006
0.0208655
0.0205472
0.020247
0.0199659
0.0197048
0.0194648
0.0192465
0.0190507
0.0188781
0.0187292
0.0186043
0.018504
0.0184285
0.0183781
0.0183528
0.0222923
0.022323
0.0223844
0.0224762
0.0225982
0.0227499
0.0229311
0.0231411
0.0233792
0.0236446
0.0239366
0.0242542
0.0245962
0.0249614
0.0253486
0.0257562
0.0261828
0.0266266
0.0270859
0.0275586
0.0280428
0.0285364
0.0290373
0.0295434
0.0300525
0.0305629
0.0310729
0.031581
0.0320864
0.0325882
0.0330862
0.0335799
0.0340687
0.034551
0.035024
0.0354838
0.0359253
0.0363435
0.0367341
0.0370931
0.0374183
0.0377176
0.0380053
0.0382897
0.0385595
0.0387839
0.0389475
0.0390533
0.0391134
0.0391399
0.0391398
0.0391134
0.0390533
0.0389475
0.0387839
0.0385594
0.0382897
0.0380053
0.0377176
0.0374183
0.0370931
0.0367341
0.0363435
0.0359253
0.0354837
0.035024
0.0345509
0.0340687
0.0335799
0.0330861
0.0325882
0.0320863
0.031581
0.0310728
0.0305629
0.0300525
0.0295433
0.0290373
0.0285364
0.0280428
0.0275585
0.0270858
0.0266266
0.0261828
0.0257562
0.0253486
0.0249614
0.0245962
0.0242542
0.0239366
0.0236447
0.0233792
0.0231411
0.0229312
0.02275
0.0225982
0.0224762
0.0223844
0.0223231
0.0222924
0.0261492
0.0261852
0.0262573
0.0263651
0.0265084
0.0266867
0.0268995
0.0271462
0.0274259
0.0277378
0.0280808
0.0284539
0.0288558
0.029285
0.0297399
0.030219
0.0307204
0.031242
0.0317817
0.0323372
0.0329062
0.033486
0.0340741
0.0346678
0.0352647
0.0358624
0.0364588
0.0370522
0.0376416
0.0382264
0.0388067
0.0393828
0.0399546
0.040521
0.0410789
0.0416228
0.0421455
0.0426393
0.0430995
0.0435178
0.0438828
0.0442096
0.0445338
0.0448844
0.0452445
0.0455315
0.0457197
0.0458248
0.045875
0.0458937
0.0458937
0.045875
0.0458248
0.0457197
0.0455315
0.0452444
0.0448844
0.0445337
0.0442095
0.0438828
0.0435178
0.0430994
0.0426393
0.0421455
0.0416228
0.0410789
0.0405209
0.0399545
0.0393827
0.0388067
0.0382264
0.0376415
0.0370522
0.0364587
0.0358623
0.0352646
0.0346678
0.034074
0.0334859
0.0329061
0.0323372
0.0317817
0.0312419
0.0307203
0.030219
0.0297399
0.0292849
0.0288557
0.0284539
0.0280808
0.0277377
0.0274259
0.0271462
0.0268995
0.0266867
0.0265085
0.0263652
0.0262573
0.0261853
0.0261492
0.0299089
0.0299502
0.0300327
0.0301563
0.0303204
0.0305247
0.0307685
0.031051
0.0313715
0.0317288
0.0321219
0.0325495
0.03301
0.0335019
0.0340234
0.0345725
0.0351472
0.0357452
0.0363639
0.0370007
0.0376528
0.0383172
0.0389907
0.0396701
0.0403525
0.0410347
0.0417144
0.0423894
0.0430584
0.0437212
0.0443785
0.0450319
0.0456828
0.0463313
0.0469746
0.0476051
0.0482117
0.0487812
0.0493148
0.0497998
0.050186
0.050501
0.0508295
0.0512603
0.0517897
0.0521629
0.0523578
0.0524331
0.0524491
0.052447
0.052447
0.0524491
0.0524331
0.0523578
0.0521629
0.0517897
0.0512603
0.0508295
0.050501
0.050186
0.0497998
0.0493147
0.0487811
0.0482117
0.0476051
0.0469746
0.0463313
0.0456827
0.0450318
0.0443785
0.0437212
0.0430584
0.0423894
0.0417144
0.0410347
0.0403524
0.0396701
0.0389906
0.0383171
0.0376528
0.0370007
0.0363639
0.0357452
0.0351472
0.0345725
0.0340234
0.0335019
0.03301
0.0325495
0.0321219
0.0317288
0.0313715
0.031051
0.0307685
0.0305247
0.0303204
0.0301563
0.0300328
0.0299502
0.0299089
0.0335573
0.0336038
0.0336965
0.0338353
0.0340198
0.0342494
0.0345234
0.034841
0.0352012
0.0356029
0.0360448
0.0365255
0.0370433
0.0375965
0.0381829
0.0388005
0.039447
0.0401196
0.0408156
0.041532
0.0422655
0.0430126
0.0437695
0.0445326
0.0452979
0.0460619
0.0468213
0.0475735
0.0483167
0.0490509
0.0497779
0.0505013
0.0512253
0.0519529
0.0526834
0.0534056
0.0541038
0.0547422
0.0553567
0.055954
0.0563295
0.0565443
0.0567849
0.0572956
0.0582448
0.0587228
0.0588639
0.0588477
0.0587878
0.0587447
0.0587448
0.0587878
0.0588477
0.0588639
0.0587228
0.0582448
0.0572956
0.0567849
0.0565443
0.0563295
0.055954
0.0553567
0.0547421
0.0541037
0.0534056
0.0526833
0.0519529
0.0512253
0.0505012
0.0497779
0.0490509
0.0483167
0.0475735
0.0468213
0.0460619
0.0452979
0.0445325
0.0437695
0.0430126
0.0422655
0.041532
0.0408156
0.0401196
0.0394469
0.0388005
0.0381829
0.0375965
0.0370433
0.0365255
0.0360449
0.0356029
0.0352012
0.034841
0.0345234
0.0342494
0.0340198
0.0338354
0.0336966
0.0336038
0.0335573
0.0370807
0.0371321
0.0372348
0.0373884
0.0375926
0.0378468
0.0381501
0.0385017
0.0389005
0.0393454
0.0398347
0.040367
0.0409405
0.0415532
0.0422029
0.0428871
0.0436034
0.0443487
0.0451201
0.0459142
0.0467271
0.047555
0.0483935
0.0492379
0.0500838
0.0509265
0.051762
0.0525866
0.0533977
0.0541949
0.0549814
0.0557637
0.0565515
0.0573521
0.0581739
0.058997
0.0598158
0.060481
0.0611637
0.0620721
0.0623714
0.0622961
0.0622008
0.0626185
0.0648901
0.0653348
0.0652402
0.0650185
0.0648216
0.0647114
0.0647114
0.0648216
0.0650185
0.0652402
0.0653348
0.0648901
0.0626185
0.0622008
0.0622961
0.0623713
0.0620721
0.0611636
0.060481
0.0598157
0.0589969
0.0581738
0.057352
0.0565515
0.0557637
0.0549814
0.0541949
0.0533977
0.0525866
0.051762
0.0509265
0.0500837
0.0492379
0.0483934
0.047555
0.0467271
0.0459142
0.0451201
0.0443487
0.0436034
0.0428871
0.0422029
0.0415532
0.0409405
0.040367
0.0398347
0.0393454
0.0389005
0.0385017
0.0381501
0.0378468
0.0375926
0.0373884
0.0372348
0.0371321
0.0370807
0.0404655
0.0405217
0.0406339
0.0408019
0.0410252
0.041303
0.0416347
0.0420192
0.0424553
0.0429418
0.043477
0.0440593
0.0446867
0.045357
0.0460678
0.0468166
0.0476005
0.0484164
0.049261
0.0501306
0.051021
0.0519277
0.0528456
0.0537694
0.0546933
0.0556119
0.0565201
0.0574126
0.0582846
0.0591342
0.0599665
0.0607907
0.0616274
0.0624847
0.0634099
0.0643318
0.0654126
0.0659269
0.0664625
0.0685091
0.0684927
0.067771
0.0668048
0.0657839
0.0648042
0.0639235
0.0631803
0.0626017
0.0622062
0.0620056
0.0620056
0.0622062
0.0626016
0.0631803
0.0639235
0.0648042
0.0657839
0.0668048
0.067771
0.0684927
0.0685091
0.0664625
0.0659269
0.0654126
0.0643318
0.0634099
0.0624847
0.0616274
0.0607906
0.0599664
0.0591342
0.0582846
0.0574126
0.0565201
0.0556119
0.0546933
0.0537694
0.0528456
0.0519277
0.0510209
0.0501306
0.049261
0.0484164
0.0476005
0.0468166
0.0460678
0.0453569
0.0446867
0.0440593
0.043477
0.0429418
0.0424553
0.0420192
0.0416347
0.0413031
0.0410252
0.040802
0.040634
0.0405217
0.0404655
0.0436987
0.0437596
0.043881
0.0440628
0.0443043
0.044605
0.0449639
0.0453799
0.0458519
0.0463784
0.0469577
0.047588
0.0482672
0.048993
0.0497627
0.0505737
0.0514228
0.0523067
0.053222
0.0541647
0.0551303
0.0561138
0.0571095
0.0581107
0.0591106
0.0601024
0.0610803
0.0620378
0.0629646
0.0638535
0.064714
0.0655513
0.0664206
0.067279
0.0683699
0.0692193
0.0712779
0.0710469
0.069939
0.0684427
0.0667499
0.064922
0.0628977
0.0603455
0.0560602
0.0538186
0.0524024
0.0514501
0.0508458
0.0505499
0.0505499
0.0508458
0.0514501
0.0524024
0.0538186
0.0560602
0.0603455
0.0628977
0.064922
0.0667499
0.0684427
0.069939
0.0710469
0.0712779
0.0692193
0.0683699
0.0672789
0.0664206
0.0655513
0.064714
0.0638535
0.0629646
0.0620377
0.0610803
0.0601024
0.0591106
0.0581108
0.0571095
0.0561138
0.0551303
0.0541647
0.053222
0.0523068
0.0514228
0.0505736
0.0497627
0.0489929
0.0482672
0.047588
0.0469577
0.0463784
0.0458519
0.0453799
0.0449639
0.044605
0.0443044
0.0440628
0.0438811
0.0437596
0.0436988
0.046768
0.0468332
0.0469634
0.0471583
0.0474173
0.0477397
0.0481246
0.0485708
0.049077
0.0496417
0.0502632
0.0509394
0.0516681
0.0524469
0.0532729
0.0541433
0.0550548
0.056004
0.0569871
0.0580001
0.0590385
0.060097
0.0611689
0.0622463
0.0633202
0.0643825
0.0654281
0.0664515
0.0674317
0.0683417
0.0692165
0.0700028
0.0709386
0.0715453
0.0732658
0.0725825
0.0708622
0.0684699
0.0652323
0.0600058
0.056581
0.0537149
0.0509724
0.0481054
0.0449996
0.0426257
0.0409041
0.0396985
0.0389273
0.0385498
0.0385498
0.0389272
0.0396985
0.0409041
0.0426257
0.0449996
0.0481054
0.0509724
0.0537148
0.056581
0.0600058
0.0652323
0.0684699
0.0708622
0.0725825
0.0732658
0.0715453
0.0709386
0.0700027
0.0692165
0.0683417
0.0674317
0.0664515
0.0654281
0.0643825
0.0633202
0.0622463
0.0611689
0.060097
0.0590385
0.0580001
0.0569871
0.056004
0.0550548
0.0541433
0.0532729
0.0524468
0.0516681
0.0509393
0.0502631
0.0496417
0.049077
0.0485708
0.0481246
0.0477398
0.0474174
0.0471584
0.0469635
0.0468333
0.0467681
0.0496613
0.0497306
0.0498692
0.0500765
0.050352
0.050695
0.0511044
0.0515792
0.0521178
0.0527188
0.0533802
0.0540999
0.0548756
0.0557048
0.0565843
0.0575111
0.0584819
0.0594929
0.0605404
0.0616205
0.0627289
0.0638603
0.0650076
0.0661611
0.067308
0.0684364
0.0695452
0.0706464
0.0716969
0.0725835
0.0735167
0.0740045
0.0754755
0.0743793
0.0719924
0.0684084
0.0625488
0.0581775
0.0539674
0.0494851
0.0455863
0.0421293
0.0389287
0.0358741
0.0329916
0.0305762
0.0286932
0.0273212
0.0264268
0.0259858
0.0259858
0.0264268
0.0273212
0.0286931
0.0305761
0.0329916
0.0358741
0.0389286
0.0421293
0.0455863
0.0494851
0.0539674
0.0581775
0.0625488
0.0684084
0.0719923
0.0743793
0.0754755
0.0740045
0.0735167
0.0725836
0.0716969
0.0706464
0.0695452
0.0684365
0.067308
0.0661611
0.0650076
0.0638603
0.0627289
0.0616205
0.0605404
0.0594929
0.0584819
0.0575112
0.0565843
0.0557048
0.0548756
0.0540999
0.0533802
0.0527188
0.0521178
0.0515792
0.0511045
0.050695
0.0503521
0.0500765
0.0498692
0.0497307
0.0496614
0.0523671
0.0524404
0.0525867
0.0528057
0.0530968
0.0534591
0.0538916
0.0543932
0.0549623
0.0555972
0.0562962
0.0570569
0.0578769
0.0587533
0.0596833
0.0606632
0.0616895
0.0627585
0.0638663
0.0650094
0.0661841
0.0673862
0.0686092
0.0698414
0.0710629
0.0722486
0.073398
0.0746092
0.0758324
0.0764755
0.0779486
0.076701
0.0740039
0.0699287
0.0633485
0.0579573
0.052462
0.0474579
0.0427272
0.038154
0.03394
0.0300927
0.0265583
0.0233036
0.0203627
0.0178512
0.0158367
0.0143377
0.0133487
0.0128581
0.0128581
0.0133487
0.0143377
0.0158367
0.0178512
0.0203627
0.0233036
0.0265583
0.0300927
0.03394
0.0381539
0.0427272
0.0474578
0.052462
0.0579573
0.0633485
0.0699287
0.0740039
0.076701
0.0779485
0.0764755
0.0758324
0.0746092
0.073398
0.0722486
0.0710629
0.0698414
0.0686092
0.0673862
0.0661841
0.0650094
0.0638663
0.0627585
0.0616895
0.0606632
0.0596833
0.0587534
0.0578769
0.0570569
0.0562962
0.0555973
0.0549623
0.0543932
0.0538916
0.0534591
0.0530968
0.0528058
0.0525868
0.0524405
0.0523672
0.0548749
0.0549518
0.0551053
0.0553351
0.0556406
0.0560209
0.0564749
0.0570013
0.0575987
0.0582654
0.0589992
0.059798
0.0606593
0.06158
0.0625568
0.0635862
0.0646642
0.0657867
0.0669497
0.0681502
0.0693859
0.0706552
0.071955
0.0732751
0.0745853
0.0758172
0.0768979
0.0782571
0.0802328
0.0792129
0.076522
0.0722691
0.0653416
0.059431
0.0532345
0.0473531
0.0416518
0.0362547
0.0311406
0.0262946
0.021777
0.01761
0.0137903
0.0103162
0.00721407
0.00455041
0.00239474
0.000781102
-0.000286615
-0.000816815
-0.000816826
-0.000286625
0.000781091
0.00239473
0.00455041
0.00721405
0.0103161
0.0137903
0.0176099
0.0217769
0.0262946
0.0311405
0.0362547
0.0416518
0.0473531
0.0532345
0.059431
0.0653416
0.0722691
0.076522
0.0792129
0.0802328
0.0782571
0.0768979
0.0758172
0.0745853
0.0732751
0.071955
0.0706551
0.0693859
0.0681502
0.0669497
0.0657866
0.0646642
0.0635862
0.0625568
0.06158
0.0606593
0.0597981
0.0589992
0.0582654
0.0575987
0.0570013
0.0564749
0.0560209
0.0556407
0.0553352
0.0551054
0.0549518
0.0548749
0.0571744
0.0572546
0.0574148
0.0576546
0.0579733
0.05837
0.0588437
0.0593929
0.0600163
0.060712
0.0614779
0.0623118
0.063211
0.0641725
0.0651927
0.0662678
0.0673932
0.0685642
0.0697764
0.0710268
0.0723147
0.0736432
0.0750187
0.0764452
0.0779003
0.0792392
0.07981
0.0809658
0.0790488
0.0750406
0.0680854
0.0619569
0.0553797
0.0489626
0.0425771
0.0363667
0.0303607
0.0246158
0.0191555
0.0139981
0.00917437
0.00470922
0.000623173
-0.00308168
-0.00639744
-0.00927091
-0.0115921
-0.0133171
-0.0144504
-0.0150105
-0.0150105
-0.0144504
-0.0133171
-0.0115921
-0.00927092
-0.00639746
-0.00308171
0.000623141
0.0047092
0.00917436
0.0139981
0.0191555
0.0246158
0.0303606
0.0363667
0.0425771
0.0489626
0.0553797
0.0619569
0.0680853
0.0750406
0.0790488
0.0809657
0.07981
0.0792392
0.0779002
0.0764451
0.0750187
0.0736432
0.0723147
0.0710268
0.0697764
0.0685642
0.0673932
0.0662678
0.0651927
0.0641725
0.063211
0.0623119
0.061478
0.060712
0.0600164
0.059393
0.0588437
0.0583701
0.0579733
0.0576546
0.0574149
0.0572546
0.0571744
0.0592562
0.0593395
0.0595057
0.0597545
0.0600852
0.0604968
0.0609882
0.0615581
0.0622049
0.0629268
0.0637217
0.0645873
0.065521
0.0665196
0.0675795
0.0686964
0.0698651
0.0710796
0.0723343
0.0736245
0.0749505
0.0763203
0.0777551
0.0792974
0.0810285
0.0831133
0.0818118
0.0781685
0.0713812
0.0652562
0.0585347
0.0518335
0.0450269
0.0382607
0.031571
0.02503
0.0186889
0.0125984
0.00679753
0.00132087
-0.00381281
-0.00857687
-0.0129133
-0.0168403
-0.0204081
-0.0235884
-0.0261085
-0.0279328
-0.029108
-0.0296825
-0.0296825
-0.029108
-0.0279328
-0.0261086
-0.0235884
-0.0204081
-0.0168403
-0.0129134
-0.00857689
-0.00381282
0.00132084
0.00679751
0.0125984
0.0186889
0.0250299
0.0315709
0.0382607
0.0450268
0.0518335
0.0585347
0.0652562
0.0713812
0.0781684
0.0818118
0.0831132
0.0810285
0.0792974
0.0777551
0.0763203
0.0749505
0.0736245
0.0723342
0.0710796
0.069865
0.0686964
0.0675795
0.0665196
0.065521
0.0645873
0.0637217
0.0629268
0.062205
0.0615582
0.0609883
0.0604969
0.0600853
0.0597546
0.0595058
0.0593396
0.0592563
0.061112
0.0611979
0.0613695
0.0616263
0.0619676
0.0623924
0.0628996
0.0634877
0.0641551
0.0649001
0.0657206
0.0666142
0.0675785
0.0686104
0.0697062
0.0708613
0.0720698
0.0733239
0.0746147
0.0759337
0.077278
0.0786555
0.080094
0.0816564
0.0834829
0.0817952
0.0775774
0.0699505
0.0627577
0.0558013
0.0487265
0.0416079
0.0344561
0.0273351
0.0202982
0.0134042
0.00670583
0.000257159
-0.005893
-0.0116836
-0.017131
-0.0222308
-0.0267804
-0.0308615
-0.0346935
-0.0384387
-0.0411822
-0.0430506
-0.0442142
-0.0447741
-0.0447741
-0.0442142
-0.0430506
-0.0411822
-0.0384387
-0.0346936
-0.0308615
-0.0267804
-0.0222309
-0.0171311
-0.0116836
-0.00589303
0.000257138
0.00670582
0.0134042
0.0202982
0.0273351
0.0344561
0.0416079
0.0487265
0.0558013
0.0627577
0.0699504
0.0775774
0.0817951
0.0834829
0.0816564
0.0800939
0.0786555
0.077278
0.0759337
0.0746146
0.0733239
0.0720698
0.0708613
0.0697062
0.0686104
0.0675785
0.0666143
0.0657206
0.0649002
0.0641552
0.0634877
0.0628996
0.0623925
0.0619677
0.0616264
0.0613696
0.061198
0.0611121
0.0627338
0.0628221
0.0629983
0.0632621
0.0636126
0.0640489
0.0645696
0.0651734
0.0658585
0.0666232
0.0674655
0.0683832
0.0693738
0.0704346
0.0715623
0.0727524
0.0739984
0.0752906
0.0766147
0.077954
0.0792961
0.0806408
0.0820059
0.0834337
0.0808767
0.0744346
0.0681962
0.0610171
0.0536492
0.0462468
0.0387753
0.0312602
0.0237305
0.0162329
0.00882103
0.00155187
-0.00552828
-0.0123552
-0.0188885
-0.024951
-0.0306922
-0.0363076
-0.040968
-0.0449658
-0.0488823
-0.0540895
-0.0569168
-0.0586508
-0.0596965
-0.0601956
-0.0601956
-0.0596965
-0.0586508
-0.0569169
-0.0540895
-0.0488823
-0.0449658
-0.040968
-0.0363077
-0.0306923
-0.024951
-0.0188885
-0.0123553
-0.0055283
0.00155185
0.00882102
0.0162328
0.0237305
0.0312602
0.0387753
0.0462468
0.0536491
0.0610171
0.0681961
0.0744346
0.0808766
0.0834337
0.0820059
0.0806408
0.0792961
0.0779539
0.0766147
0.0752906
0.0739984
0.0727524
0.0715623
0.0704346
0.0693738
0.0683832
0.0674655
0.0666233
0.0658585
0.0651734
0.0645696
0.0640489
0.0636127
0.0632622
0.0629984
0.0628222
0.0627339
0.0641147
0.064205
0.0643852
0.0646549
0.0650132
0.065459
0.065991
0.0666077
0.0673075
0.0680883
0.0689483
0.0698854
0.0708975
0.0719822
0.0731372
0.0743591
0.0756421
0.0769755
0.0783379
0.0796973
0.0810248
0.0823056
0.0835411
0.0806268
0.0735934
0.066577
0.059489
0.0520381
0.044373
0.0365921
0.0287311
0.0208237
0.0129027
0.00500753
-0.00280315
-0.0104616
-0.0179562
-0.0251716
-0.0322356
-0.0383936
-0.0442073
-0.0511419
-0.0555996
-0.058915
-0.061526
-0.0636
-0.0652115
-0.066398
-0.0671799
-0.0675684
-0.0675684
-0.0671799
-0.066398
-0.0652115
-0.0636
-0.061526
-0.058915
-0.0555996
-0.0511418
-0.0442073
-0.0383936
-0.0322356
-0.0251716
-0.0179562
-0.0104616
-0.00280317
0.00500751
0.0129027
0.0208236
0.0287311
0.0365921
0.044373
0.0520381
0.059489
0.0665769
0.0735934
0.0806267
0.0835411
0.0823056
0.0810248
0.0796973
0.078338
0.0769755
0.0756422
0.0743591
0.0731373
0.0719823
0.0708975
0.0698854
0.0689484
0.0680884
0.0673075
0.0666078
0.0659911
0.0654591
0.0650133
0.064655
0.0643853
0.0642051
0.0641148
0.0652488
0.0653407
0.0655242
0.0657987
0.0661632
0.0666167
0.0671577
0.0677846
0.0684956
0.0692887
0.0701619
0.0711133
0.0721411
0.0732437
0.0744198
0.0756687
0.0769889
0.0783728
0.0797935
0.0811888
0.0825033
0.083705
0.0806616
0.0733833
0.0660094
0.0585381
0.0509232
0.0430844
0.0350574
0.0268966
0.018647
0.010349
0.00203266
-0.00628385
-0.0145264
-0.0225516
-0.0305424
-0.0379858
-0.046303
-0.0519673
-0.0563621
-0.0599404
-0.0628412
-0.0650224
-0.0661498
-0.0650079
-0.0653597
-0.0659738
-0.0664778
-0.0667492
-0.0667492
-0.0664778
-0.0659738
-0.0653597
-0.0650079
-0.0661498
-0.0650224
-0.0628412
-0.0599404
-0.0563621
-0.0519673
-0.046303
-0.0379858
-0.0305424
-0.0225516
-0.0145264
-0.00628388
0.00203264
0.010349
0.018647
0.0268966
0.0350574
0.0430844
0.0509232
0.0585381
0.0660094
0.0733832
0.0806616
0.083705
0.0825034
0.0811888
0.0797935
0.0783728
0.0769889
0.0756688
0.0744199
0.0732437
0.0721412
0.0711134
0.0701619
0.0692887
0.0684956
0.0677847
0.0671578
0.0666168
0.0661633
0.0657987
0.0655243
0.0653408
0.0652489
0.0661309
0.0662241
0.0664101
0.0666883
0.0670576
0.0675169
0.0680646
0.0686988
0.0694175
0.0702188
0.0711004
0.0720605
0.0730973
0.0742098
0.0753981
0.076665
0.0780181
0.079467
0.0809951
0.082468
0.0837881
0.0807891
0.0734663
0.0659574
0.058278
0.0504312
0.0424028
0.0341751
0.0257669
0.0172172
0.0085748
-0.000107044
-0.00880015
-0.017575
-0.0263558
-0.0345287
-0.0434922
-0.0497087
-0.0545268
-0.058289
-0.0607939
-0.0608624
-0.0622378
-0.0636111
-0.0644684
-0.0645973
-0.0649218
-0.0653342
-0.0656813
-0.0658738
-0.0658738
-0.0656813
-0.0653342
-0.0649218
-0.0645973
-0.0644684
-0.0636111
-0.0622378
-0.0608624
-0.0607939
-0.058289
-0.0545268
-0.0497087
-0.0434922
-0.0345287
-0.0263558
-0.017575
-0.00880019
-0.000107086
0.00857479
0.0172172
0.0257669
0.0341751
0.0424028
0.0504311
0.058278
0.0659573
0.0734663
0.0807891
0.0837881
0.082468
0.0809952
0.079467
0.0780181
0.0766651
0.0753982
0.0742099
0.0730974
0.0720605
0.0711005
0.0702188
0.0694176
0.0686989
0.0680647
0.067517
0.0670577
0.0666883
0.0664102
0.0662241
0.066131
0.0667568
0.0668509
0.0670387
0.0673196
0.0676924
0.0681556
0.0687076
0.0693462
0.0700694
0.0708746
0.0717596
0.0727223
0.0737607
0.0748736
0.076061
0.0773274
0.0786914
0.0802089
0.0819648
0.0835979
0.0808355
0.0736502
0.0661833
0.0584619
0.050508
0.0423344
0.0339456
0.0253464
0.0165549
0.00760537
-0.0014449
-0.0105002
-0.0194607
-0.0287302
-0.038623
-0.0455081
-0.0507001
-0.0543144
-0.0552712
-0.0573187
-0.0591052
-0.0601663
-0.0613227
-0.062399
-0.0631975
-0.063676
-0.0640815
-0.0644452
-0.0647241
-0.064875
-0.064875
-0.0647241
-0.0644452
-0.0640815
-0.063676
-0.0631976
-0.062399
-0.0613227
-0.0601663
-0.0591052
-0.0573187
-0.0552712
-0.0543144
-0.0507002
-0.0455081
-0.0386231
-0.0287302
-0.0194607
-0.0105002
-0.00144491
0.00760538
0.0165549
0.0253463
0.0339456
0.0423344
0.050508
0.0584619
0.0661833
0.0736502
0.0808355
0.0835979
0.0819648
0.0802089
0.0786914
0.0773274
0.0760611
0.0748737
0.0737608
0.0727223
0.0717597
0.0708747
0.0700694
0.0693463
0.0687076
0.0681557
0.0676924
0.0673197
0.0670388
0.066851
0.0667569
0.0671233
0.067218
0.067407
0.0676895
0.0680643
0.0685297
0.0690838
0.0697243
0.0704485
0.0712536
0.072137
0.0730961
0.0741287
0.0752324
0.0764041
0.0776395
0.0789462
0.0804336
0.082762
0.0805723
0.0737629
0.0665225
0.0589178
0.0509963
0.0427903
0.0343213
0.0256044
0.0166531
0.00748303
-0.00188379
-0.0113973
-0.0208854
-0.0296693
-0.0390766
-0.0454263
-0.0496793
-0.0509638
-0.0530432
-0.0546327
-0.0563128
-0.0578414
-0.0590742
-0.0601856
-0.0611611
-0.0619426
-0.0625241
-0.0629796
-0.0633377
-0.0635912
-0.0637234
-0.0637234
-0.0635911
-0.0633377
-0.0629796
-0.0625241
-0.0619426
-0.0611611
-0.0601856
-0.0590742
-0.0578414
-0.0563128
-0.0546327
-0.0530432
-0.0509638
-0.0496793
-0.0454263
-0.0390766
-0.0296693
-0.0208854
-0.0113973
-0.0018838
0.00748303
0.0166531
0.0256044
0.0343213
0.0427903
0.0509963
0.0589178
0.0665225
0.0737629
0.0805723
0.082762
0.0804336
0.0789462
0.0776395
0.0764041
0.0752324
0.0741287
0.0730962
0.0721371
0.0712537
0.0704485
0.0697243
0.0690839
0.0685298
0.0680644
0.0676896
0.0674071
0.0672181
0.0671233
0.067228
0.067323
0.0675126
0.0677958
0.0681714
0.0686375
0.0691917
0.0698315
0.0705537
0.071355
0.072232
0.0731817
0.0742017
0.0752895
0.076439
0.0776246
0.0787516
0.0795344
0.0795349
0.0736289
0.0668544
0.0595245
0.0517681
0.0436493
0.0352058
0.0264635
0.0174436
0.00816425
-0.0013658
-0.0111581
-0.0212641
-0.0318207
-0.039061
-0.0440041
-0.0458232
-0.0483009
-0.0501558
-0.0519813
-0.0536216
-0.0551737
-0.0565862
-0.0578151
-0.0588946
-0.0598263
-0.0605962
-0.0612065
-0.0616833
-0.062043
-0.0622874
-0.0624118
-0.0624118
-0.0622875
-0.062043
-0.0616834
-0.0612065
-0.0605962
-0.0598263
-0.0588946
-0.0578151
-0.0565862
-0.0551737
-0.0536217
-0.0519813
-0.0501558
-0.0483009
-0.0458232
-0.0440041
-0.0390611
-0.0318207
-0.0212641
-0.0111581
-0.00136581
0.00816423
0.0174436
0.0264635
0.0352058
0.0436493
0.0517681
0.0595245
0.0668544
0.0736289
0.0795348
0.0795344
0.0787516
0.0776246
0.076439
0.0752895
0.0742017
0.0731817
0.072232
0.071355
0.0705538
0.0698316
0.0691918
0.0686376
0.0681715
0.0677959
0.0675127
0.0673231
0.0672281
0.0670696
0.0671646
0.0673542
0.0676374
0.0680127
0.068478
0.0690308
0.0696678
0.0703855
0.0711795
0.0720456
0.0729801
0.0739809
0.0750491
0.0761908
0.0774098
0.0786308
0.0791363
0.073686
0.0672916
0.0602685
0.0527527
0.0448148
0.0364967
0.0278268
0.0188285
0.00952755
-4.74868e-05
-0.00988318
-0.0200051
-0.0305207
-0.0376232
-0.0422705
-0.0435578
-0.0453028
-0.0472814
-0.0491112
-0.0508358
-0.0524281
-0.0539011
-0.0552399
-0.0564291
-0.0574737
-0.0583748
-0.05913
-0.0597429
-0.0602244
-0.0605835
-0.0608236
-0.0609443
-0.0609443
-0.0608236
-0.0605835
-0.0602244
-0.0597429
-0.0591301
-0.0583748
-0.0574738
-0.0564292
-0.0552399
-0.0539011
-0.0524281
-0.0508358
-0.0491112
-0.0472814
-0.0453028
-0.0435578
-0.0422705
-0.0376232
-0.0305207
-0.0200051
-0.00988321
-4.75185e-05
0.00952751
0.0188285
0.0278268
0.0364967
0.0448148
0.0527527
0.0602685
0.0672916
0.073686
0.0791363
0.0786308
0.0774098
0.0761909
0.0750492
0.0739809
0.0729802
0.0720456
0.0711795
0.0703855
0.0696679
0.0690309
0.0684781
0.0680128
0.0676375
0.0673543
0.0671647
0.0670697
0.0666476
0.0667425
0.0669316
0.067214
0.067588
0.0680515
0.0686015
0.0692344
0.0699455
0.0707298
0.0715812
0.0724944
0.0734655
0.074498
0.0756171
0.0769324
0.0789521
0.0761711
0.0685215
0.0613514
0.0539745
0.0462354
0.0381087
0.0295995
0.020718
0.0114781
0.00190856
-0.00793265
-0.018004
-0.0283018
-0.0347449
-0.0374058
-0.0403486
-0.0424044
-0.0442989
-0.0461582
-0.0479167
-0.0495657
-0.0510946
-0.0525017
-0.0537802
-0.0549236
-0.055931
-0.0568028
-0.0575391
-0.058143
-0.0586198
-0.0589748
-0.0592109
-0.0593289
-0.0593289
-0.0592109
-0.0589748
-0.0586198
-0.058143
-0.0575391
-0.0568028
-0.055931
-0.0549235
-0.0537802
-0.0525017
-0.0510946
-0.0495657
-0.0479167
-0.0461582
-0.0442989
-0.0424045
-0.0403486
-0.0374058
-0.0347449
-0.0283019
-0.018004
-0.00793266
0.00190856
0.0114781
0.020718
0.0295995
0.0381087
0.0462354
0.0539745
0.0613514
0.0685215
0.0761711
0.0789521
0.0769324
0.0756172
0.074498
0.0734655
0.0724944
0.0715813
0.0707298
0.0699456
0.0692344
0.0686016
0.0680516
0.0675881
0.0672141
0.0669317
0.0667426
0.0666477
0.0659626
0.066057
0.0662452
0.0665262
0.0668982
0.067359
0.0679054
0.0685333
0.0692372
0.0700107
0.0708455
0.0717323
0.0726613
0.0736225
0.0745984
0.0754887
0.0755542
0.0695636
0.062642
0.0554145
0.0478717
0.0399685
0.0316839
0.0230106
0.0139429
0.00447367
-0.00537939
-0.0154839
-0.0257486
-0.0320163
-0.0342882
-0.0366786
-0.0390788
-0.0411752
-0.0430908
-0.0448944
-0.0465881
-0.0481698
-0.0496352
-0.0509814
-0.0522047
-0.0533015
-0.0542706
-0.0551117
-0.0558257
-0.0564144
-0.056881
-0.0572287
-0.0574597
-0.0575749
-0.0575749
-0.0574597
-0.0572287
-0.056881
-0.0564144
-0.0558257
-0.0551117
-0.0542706
-0.0533015
-0.0522047
-0.0509815
-0.0496352
-0.0481698
-0.0465881
-0.0448944
-0.0430908
-0.0411753
-0.0390789
-0.0366786
-0.0342882
-0.0320164
-0.0257486
-0.0154839
-0.00537941
0.00447367
0.0139429
0.0230106
0.0316839
0.0399685
0.0478717
0.0554145
0.062642
0.0695636
0.0755542
0.0754888
0.0745984
0.0736225