/*--------------------------------*- C++ -*----------------------------------*\
  =========                 |
  \\      /  F ield         | OpenFOAM: The Open Source CFD Toolbox
   \\    /   O peration     | Website:  https://openfoam.org
    \\  /    A nd           | Version:  7
     \\/     M anipulation  |
\*---------------------------------------------------------------------------*/
FoamFile
{
    version     2.0;
    format      ascii;
    class       volScalarField;
    location    "0.045";
    object      gradTx;
}
// * * * * * * * * * * * * * * * * * * * * * * * * * * * * * * * * * * * * * //

dimensions      [0 -1 0 1 0 0 0];

internalField   nonuniform List<scalar> 
10000
(
6.88214e-06
2.06358e-05
3.43366e-05
4.78785e-05
6.12193e-05
7.43271e-05
8.71597e-05
9.96428e-05
0.000111702
0.000123349
0.000134509
0.000145118
0.000155187
0.000164589
0.000173388
0.000181466
0.000188857
0.000195495
0.000201361
0.000206443
0.000210689
0.000214088
0.000216692
0.000218418
0.000219265
0.000219254
0.000218386
0.00021666
0.000214098
0.000210657
0.00020638
0.000201319
0.000195442
0.000188793
0.000181413
0.000173314
0.000164515
0.000155092
0.000145044
0.000134435
0.000123275
0.000111671
9.95899e-05
8.71173e-05
7.4306e-05
6.12087e-05
4.78679e-05
3.4326e-05
2.06782e-05
6.93508e-06
-6.8292e-06
-2.05829e-05
-3.42413e-05
-4.77938e-05
-6.1124e-05
-7.42213e-05
-8.7022e-05
-9.94734e-05
-0.000111554
-0.00012318
-0.000134329
-0.00014497
-0.000155007
-0.000164451
-0.000173208
-0.000181318
-0.000188708
-0.000195358
-0.000201213
-0.000206295
-0.000210562
-0.000214003
-0.000216597
-0.000218312
-0.000219212
-0.00021918
-0.000218344
-0.000216618
-0.000214045
-0.000210647
-0.00020638
-0.000201319
-0.000195463
-0.000188825
-0.000181434
-0.000173366
-0.0001646
-0.000155145
-0.000145086
-0.000134466
-0.000123317
-0.000111671
-9.95899e-05
-8.71597e-05
-7.43271e-05
-6.12193e-05
-4.78574e-05
-3.43048e-05
-2.06358e-05
-6.88214e-06
6.91391e-06
2.06358e-05
3.42837e-05
4.78679e-05
6.12087e-05
7.4306e-05
8.71385e-05
9.96217e-05
0.000111681
0.000123317
0.000134456
0.000145107
0.000155134
0.000164557
0.000173335
0.000181424
0.000188804
0.000195442
0.000201319
0.00020639
0.000210647
0.000214035
0.000216629
0.000218355
0.000219233
0.000219202
0.000218323
0.000216608
0.000214035
0.000210594
0.000206327
0.000201276
0.0001954
0.000188761
0.00018135
0.000173261
0.000164473
0.000155039
0.000145012
0.000134392
0.000123264
0.000111639
9.95475e-05
8.70962e-05
7.4306e-05
6.11875e-05
4.78468e-05
3.43366e-05
2.06782e-05
6.93508e-06
-6.83979e-06
-2.05935e-05
-3.42413e-05
-4.77515e-05
-6.11028e-05
-7.42107e-05
-8.70115e-05
-9.94523e-05
-0.000111522
-0.000123159
-0.000134286
-0.000144917
-0.000154975
-0.00016442
-0.000173176
-0.000181276
-0.000188655
-0.000195273
-0.00020116
-0.000206242
-0.000210519
-0.000213971
-0.000216544
-0.000218238
-0.000219127
-0.000219127
-0.000218302
-0.000216565
-0.000213992
-0.000210594
-0.000206327
-0.000201255
-0.000195411
-0.000188814
-0.000181392
-0.000173314
-0.000164547
-0.000155113
-0.000145054
-0.000134435
-0.000123286
-0.00011165
-9.95581e-05
-8.71173e-05
-7.4306e-05
-6.11981e-05
-4.78468e-05
-3.43048e-05
-2.06358e-05
-6.88214e-06
6.89273e-06
2.06464e-05
3.42837e-05
4.78256e-05
6.11664e-05
7.42848e-05
8.70856e-05
9.9537e-05
0.000111618
0.000123275
0.000134403
0.000145023
0.000155039
0.000164483
0.00017325
0.000181329
0.00018873
0.000195358
0.000201202
0.000206274
0.00021053
0.00021395
0.000216491
0.000218238
0.000219138
0.000219085
0.000218217
0.000216502
0.000213929
0.000210498
0.00020621
0.00020117
0.000195294
0.000188645
0.000181265
0.000173165
0.000164399
0.000154965
0.000144927
0.000134329
0.000123201
0.000111586
9.95158e-05
8.70326e-05
7.42636e-05
6.1177e-05
4.78256e-05
3.43154e-05
2.0657e-05
6.91391e-06
-6.83979e-06
-2.05723e-05
-3.42201e-05
-4.77409e-05
-6.10817e-05
-7.41683e-05
-8.69585e-05
-9.94099e-05
-0.00011147
-0.000123095
-0.000134212
-0.000144843
-0.00015488
-0.000164314
-0.000173102
-0.00018117
-0.00018855
-0.000195209
-0.000201075
-0.000206136
-0.000210403
-0.000213844
-0.000216438
-0.000218153
-0.000219022
-0.000219022
-0.000218175
-0.000216449
-0.000213897
-0.000210488
-0.000206221
-0.00020116
-0.000195326
-0.000188687
-0.000181297
-0.000173239
-0.000164451
-0.000155018
-0.000144959
-0.000134371
-0.000123212
-0.000111597
-9.95264e-05
-8.7075e-05
-7.42636e-05
-6.11875e-05
-4.78362e-05
-3.42731e-05
-2.06358e-05
-6.88214e-06
6.89273e-06
2.06041e-05
3.42519e-05
4.77832e-05
6.11558e-05
7.42318e-05
8.70009e-05
9.94628e-05
0.000111544
0.000123148
0.000134318
0.000144896
0.000154912
0.000164356
0.000173144
0.000181212
0.00018856
0.00019522
0.000201075
0.000206104
0.000210371
0.000213791
0.000216322
0.000218069
0.000218937
0.000218916
0.000218079
0.000216322
0.00021377
0.000210339
0.000206073
0.000201001
0.000195156
0.000188518
0.000181117
0.000173038
0.000164261
0.000154848
0.000144832
0.000134223
0.000123106
0.00011148
9.94311e-05
8.69903e-05
7.42001e-05
6.11134e-05
4.77938e-05
3.42942e-05
2.06464e-05
6.90332e-06
-6.8292e-06
-2.05511e-05
-3.42095e-05
-4.76985e-05
-6.10287e-05
-7.41154e-05
-8.69056e-05
-9.93464e-05
-0.000111385
-0.000122979
-0.000134117
-0.000144737
-0.000154774
-0.000164187
-0.000172943
-0.000181043
-0.000188422
-0.000195061
-0.000200916
-0.000205988
-0.000210265
-0.000213685
-0.000216258
-0.000217984
-0.000218852
-0.000218842
-0.000218005
-0.00021629
-0.000213728
-0.000210339
-0.000206062
-0.000201022
-0.000195167
-0.000188539
-0.00018118
-0.000173081
-0.000164324
-0.000154891
-0.000144853
-0.000134265
-0.000123127
-0.000111512
-9.94628e-05
-8.69903e-05
-7.42107e-05
-6.1124e-05
-4.78044e-05
-3.42625e-05
-2.06041e-05
-6.89273e-06
6.87155e-06
2.05829e-05
3.42307e-05
4.77621e-05
6.10605e-05
7.41471e-05
8.69162e-05
9.9357e-05
0.000111427
0.000123042
0.000134159
0.000144747
0.000154753
0.000164208
0.000172954
0.000181032
0.000188391
0.000195008
0.000200895
0.000205935
0.000210138
0.000213537
0.00021612
0.000217846
0.000218725
0.000218683
0.000217836
0.00021612
0.000213548
0.000210128
0.000205861
0.000200821
0.000194955
0.000188306
0.000180926
0.000172869
0.000164081
0.000154711
0.000144705
0.000134085
0.000122968
0.000111374
9.93252e-05
8.69056e-05
7.4126e-05
6.10287e-05
4.77515e-05
3.42625e-05
2.06147e-05
6.92449e-06
-6.8292e-06
-2.053e-05
-3.41778e-05
-4.76562e-05
-6.09546e-05
-7.40413e-05
-8.68209e-05
-9.92193e-05
-0.000111268
-0.000122894
-0.00013399
-0.000144578
-0.000154615
-0.000164039
-0.000172784
-0.000180842
-0.000188221
-0.000194871
-0.000200715
-0.000205797
-0.000210064
-0.000213452
-0.000216025
-0.000217751
-0.000218619
-0.000218662
-0.000217783
-0.000216089
-0.000213526
-0.000210117
-0.00020585
-0.000200789
-0.000194976
-0.000188359
-0.000180979
-0.000172901
-0.000164166
-0.000154753
-0.000144694
-0.000134117
-0.000123
-0.000111406
-9.93358e-05
-8.69162e-05
-7.41366e-05
-6.10605e-05
-4.77515e-05
-3.42413e-05
-2.05935e-05
-6.87155e-06
6.86097e-06
2.05511e-05
3.41778e-05
4.7688e-05
6.10075e-05
7.40519e-05
8.68209e-05
9.92299e-05
0.00011129
0.000122873
0.000133979
0.000144589
0.000154584
0.000163996
0.000172742
0.000180778
0.000188147
0.000194796
0.000200609
0.000205649
0.000209884
0.000213283
0.000215866
0.000217592
0.000218429
0.000218418
0.00021756
0.000215866
0.000213262
0.000209852
0.000205607
0.000200556
0.000194712
0.000188084
0.000180714
0.000172646
0.00016388
0.000154499
0.000144514
0.000133926
0.000122799
0.000111237
9.92087e-05
8.67997e-05
7.40413e-05
6.09652e-05
4.76774e-05
3.42095e-05
2.06041e-05
6.91391e-06
-6.8292e-06
-2.0477e-05
-3.41354e-05
-4.76033e-05
-6.09017e-05
-7.39354e-05
-8.67256e-05
-9.91134e-05
-0.000111131
-0.000122714
-0.00013381
-0.000144398
-0.000154446
-0.000163816
-0.000172572
-0.000180619
-0.000187999
-0.000194627
-0.00020045
-0.000205522
-0.000209789
-0.000213188
-0.000215771
-0.000217465
-0.000218386
-0.000218376
-0.000217507
-0.000215813
-0.000213251
-0.000209842
-0.000205607
-0.000200567
-0.000194712
-0.000188105
-0.000180757
-0.00017271
-0.000163933
-0.000154531
-0.000144525
-0.000133958
-0.000122852
-0.000111237
-9.92193e-05
-8.68209e-05
-7.40519e-05
-6.09864e-05
-4.7688e-05
-3.41884e-05
-2.05511e-05
-6.86097e-06
6.86097e-06
2.05405e-05
3.41354e-05
4.76244e-05
6.08911e-05
7.3946e-05
8.66832e-05
9.91029e-05
0.00011111
0.000122672
0.000133789
0.000144356
0.000154382
0.000163753
0.000172477
0.000180524
0.000187861
0.000194489
0.000200313
0.000205353
0.000209567
0.000212965
0.000215538
0.000217253
0.0002181
0.000218079
0.000217243
0.000215549
0.000212944
0.000209535
0.0002053
0.000200239
0.000194426
0.000187819
0.000180439
0.000172382
0.000163657
0.000154276
0.000144271
0.000133736
0.000122629
0.000111078
9.90499e-05
8.66621e-05
7.39354e-05
6.08911e-05
4.75927e-05
3.4146e-05
2.05935e-05
6.89273e-06
-6.80803e-06
-2.0477e-05
-3.40825e-05
-4.75291e-05
-6.07958e-05
-7.38401e-05
-8.65879e-05
-9.89758e-05
-0.000110972
-0.000122513
-0.000133619
-0.000144186
-0.000154181
-0.000163573
-0.000172318
-0.000180365
-0.000187724
-0.00019432
-0.000200175
-0.000205225
-0.00020945
-0.000212859
-0.000215464
-0.000217158
-0.000218026
-0.000218047
-0.000217179
-0.000215506
-0.000212923
-0.000209545
-0.000205289
-0.00020026
-0.000194426
-0.00018784
-0.000180482
-0.000172435
-0.000163668
-0.000154319
-0.000144303
-0.000133757
-0.000122661
-0.000111088
-9.90817e-05
-8.66726e-05
-7.3946e-05
-6.08805e-05
-4.76244e-05
-3.41354e-05
-2.05194e-05
-6.86097e-06
6.86097e-06
2.05194e-05
3.41037e-05
4.75397e-05
6.0764e-05
7.38083e-05
8.6535e-05
9.89334e-05
0.000110919
0.000122492
0.000133545
0.000144101
0.000154075
0.000163456
0.000172191
0.000180217
0.000187544
0.000194151
0.000199974
0.000205003
0.000209196
0.000212595
0.000215157
0.000216883
0.000217719
0.000217709
0.000216862
0.000215146
0.000212595
0.000209185
0.000204929
0.00019991
0.000194066
0.00018748
0.000180132
0.000172096
0.000163393
0.000154012
0.000144027
0.000133492
0.000122428
0.000110866
9.88911e-05
8.65032e-05
7.37872e-05
6.07958e-05
4.75397e-05
3.40931e-05
2.05194e-05
6.88214e-06
-6.79744e-06
-2.04558e-05
-3.40084e-05
-4.7455e-05
-6.07005e-05
-7.3713e-05
-8.64291e-05
-9.8817e-05
-0.000110781
-0.000122312
-0.000133376
-0.000143921
-0.000153927
-0.000163287
-0.00017199
-0.000180047
-0.000187406
-0.000193992
-0.000199815
-0.000204866
-0.000209101
-0.000212521
-0.000215062
-0.000216777
-0.000217677
-0.000217666
-0.000216819
-0.000215115
-0.000212552
-0.000209154
-0.000204929
-0.000199932
-0.000194108
-0.000187491
-0.000180174
-0.000172128
-0.000163393
-0.000154044
-0.000144059
-0.000133514
-0.000122428
-0.000110898
-9.89229e-05
-8.6535e-05
-7.37977e-05
-6.07852e-05
-4.75291e-05
-3.40613e-05
-2.05088e-05
-6.85038e-06
6.83979e-06
2.0477e-05
3.39978e-05
4.7455e-05
6.06581e-05
7.36495e-05
8.63762e-05
9.87217e-05
0.000110697
0.000122248
0.00013327
0.000143826
0.0001538
0.000163128
0.000171842
0.000179867
0.000187194
0.000193748
0.000199582
0.000204601
0.000208825
0.000212182
0.000214733
0.000216438
0.000217296
0.000217275
0.000216438
0.000214733
0.000212161
0.000208762
0.000204527
0.000199508
0.000193706
0.000187099
0.000179793
0.000171768
0.000163043
0.000153715
0.000143773
0.000133217
0.000122163
0.000110665
9.86793e-05
8.63338e-05
7.36601e-05
6.06476e-05
4.7455e-05
3.40401e-05
2.0477e-05
6.85038e-06
-6.77626e-06
-2.04029e-05
-3.39448e-05
-4.73491e-05
-6.0584e-05
-7.35648e-05
-8.62597e-05
-9.86158e-05
-0.000110559
-0.000122068
-0.000133132
-0.000143657
-0.000153609
-0.000162969
-0.000171662
-0.000179709
-0.000187014
-0.000193589
-0.000199434
-0.000204474
-0.000208698
-0.000212076
-0.000214649
-0.000216353
-0.000217253
-0.000217264
-0.000216385
-0.000214691
-0.000212139
-0.000208751
-0.000204537
-0.000199519
-0.000193685
-0.000187131
-0.000179815
-0.000171778
-0.000163075
-0.000153747
-0.000143794
-0.00013327
-0.000122206
-0.000110686
-9.87005e-05
-8.6355e-05
-7.36495e-05
-6.06581e-05
-4.74338e-05
-3.4019e-05
-2.04558e-05
-6.81862e-06
6.8292e-06
2.04347e-05
3.39448e-05
4.73386e-05
6.05205e-05
7.35013e-05
8.6175e-05
9.85205e-05
0.000110453
0.000121962
0.000132984
0.000143509
0.000153451
0.000162789
0.000171471
0.000179476
0.000186771
0.000193325
0.000199148
0.000204146
0.00020836
0.000211726
0.000214268
0.000215983
0.000216798
0.000216798
0.000215972
0.000214257
0.000211705
0.000208317
0.000204071
0.000199063
0.000193272
0.000186697
0.000179391
0.000171376
0.000162694
0.000153387
0.000143456
0.000132931
0.00012192
0.0001104
9.84358e-05
8.61644e-05
7.35119e-05
6.05311e-05
4.7328e-05
3.39554e-05
2.04453e-05
6.83979e-06
-6.76568e-06
-2.03606e-05
-3.38919e-05
-4.72539e-05
-6.04464e-05
-7.33954e-05
-8.60691e-05
-9.83829e-05
-0.000110315
-0.000121835
-0.000132836
-0.00014335
-0.00015326
-0.000162588
-0.000171302
-0.000179296
-0.000186591
-0.000193187
-0.000198989
-0.000204008
-0.000208232
-0.000211631
-0.000214204
-0.000215909
-0.000216766
-0.000216777
-0.000215909
-0.000214225
-0.000211684
-0.000208275
-0.000204082
-0.000199085
-0.000193272
-0.000186707
-0.000179412
-0.000171408
-0.000162715
-0.000153408
-0.000143477
-0.000132984
-0.00012192
-0.000110432
-9.85099e-05
-8.6175e-05
-7.35013e-05
-6.05099e-05
-4.7328e-05
-3.39343e-05
-2.04241e-05
-6.79744e-06
6.80803e-06
2.03923e-05
3.38707e-05
4.72221e-05
6.0404e-05
7.33213e-05
8.59527e-05
9.82558e-05
0.000110199
0.000121697
0.000132656
0.000143159
0.00015308
0.000162387
0.000171048
0.000179042
0.000186305
0.00019288
0.000198661
0.000203648
0.000207862
0.000211218
0.00021377
0.000215443
0.0002163
0.00021629
0.000215422
0.000213759
0.000211197
0.000207798
0.000203574
0.000198587
0.000192795
0.000186241
0.000178967
0.000170984
0.000162313
0.000153006
0.000143106
0.000132624
0.000121602
0.000110125
9.82241e-05
8.59421e-05
7.33213e-05
6.03723e-05
4.72115e-05
3.39025e-05
2.03923e-05
6.81862e-06
-6.75509e-06
-2.03076e-05
-3.38072e-05
-4.71268e-05
-6.03087e-05
-7.32048e-05
-8.5868e-05
-9.81499e-05
-0.000110061
-0.000121528
-0.000132529
-0.000142969
-0.000152911
-0.000162207
-0.000170889
-0.000178862
-0.000186146
-0.000192721
-0.000198513
-0.00020351
-0.000207714
-0.000211134
-0.000213685
-0.0002154
-0.000216258
-0.000216226
-0.000215411
-0.000213717
-0.000211144
-0.000207788
-0.000203595
-0.000198587
-0.000192816
-0.000186252
-0.000178957
-0.000171005
-0.000162344
-0.000153027
-0.000143127
-0.000132656
-0.000121645
-0.000110167
-9.82452e-05
-8.59738e-05
-7.33107e-05
-6.03617e-05
-4.72115e-05
-3.38707e-05
-2.03817e-05
-6.79744e-06
6.78685e-06
2.03182e-05
3.37649e-05
4.71162e-05
6.02558e-05
7.31201e-05
8.57409e-05
9.80123e-05
0.000109913
0.000121337
0.000132317
0.00014281
0.000152667
0.000161942
0.000170614
0.000178586
0.000185828
0.000192351
0.000198142
0.000203108
0.000207301
0.000210657
0.000213219
0.000214913
0.000215729
0.000215729
0.000214871
0.000213177
0.000210657
0.000207248
0.000203044
0.000198068
0.000192276
0.000185754
0.000178502
0.00017055
0.000161889
0.000152604
0.000142714
0.000132264
0.000121285
0.00010986
9.79699e-05
8.57091e-05
7.31201e-05
6.02346e-05
4.70739e-05
3.38072e-05
2.035e-05
6.80803e-06
-6.73391e-06
-2.02547e-05
-3.37225e-05
-4.70209e-05
-6.01393e-05
-7.30248e-05
-8.56139e-05
-9.78958e-05
-0.000109765
-0.00012121
-0.00013219
-0.00014263
-0.000152498
-0.000161783
-0.000170423
-0.000178396
-0.000185659
-0.000192224
-0.000197983
-0.000202991
-0.000207174
-0.000210572
-0.000213124
-0.000214818
-0.000215686
-0.000215686
-0.00021485
-0.000213135
-0.000210604
-0.000207237
-0.000203055
-0.000198068
-0.000192308
-0.000185776
-0.000178502
-0.000170539
-0.00016191
-0.000152635
-0.000142736
-0.000132307
-0.000121327
-0.000109892
-9.80123e-05
-8.57303e-05
-7.31095e-05
-6.0224e-05
-4.70739e-05
-3.37649e-05
-2.03182e-05
-6.78685e-06
6.76568e-06
2.02653e-05
3.36907e-05
4.69574e-05
6.00864e-05
7.29189e-05
8.5508e-05
9.7737e-05
0.000109595
0.00012102
0.000131936
0.000142386
0.000152233
0.000161508
0.000170137
0.000178068
0.000185288
0.000191832
0.00019756
0.000202547
0.000206718
0.000210096
0.000212605
0.000214289
0.000215136
0.000215125
0.000214278
0.000212563
0.000210032
0.000206676
0.000202483
0.000197486
0.000191758
0.000185246
0.000178004
0.000170052
0.000161413
0.000152159
0.000142323
0.000131894
0.000120956
0.000109543
9.77053e-05
8.54656e-05
7.29084e-05
6.00652e-05
4.69574e-05
3.37013e-05
2.02864e-05
6.80803e-06
-6.72332e-06
-2.02123e-05
-3.36166e-05
-4.68833e-05
-5.99593e-05
-7.28131e-05
-8.54021e-05
-9.761e-05
-0.000109458
-0.000120872
-0.000131788
-0.000142238
-0.000152064
-0.000161317
-0.000169947
-0.000177909
-0.000185151
-0.000191673
-0.000197433
-0.000202409
-0.000206591
-0.000209979
-0.000212499
-0.000214215
-0.000215093
-0.000215072
-0.000214225
-0.000212542
-0.00020999
-0.000206676
-0.000202483
-0.000197496
-0.000191758
-0.000185267
-0.000178004
-0.000170052
-0.000161444
-0.000152212
-0.000142333
-0.000131925
-0.000120977
-0.000109595
-9.77264e-05
-8.5508e-05
-7.29189e-05
-6.00546e-05
-4.69468e-05
-3.3659e-05
-2.02653e-05
-6.75509e-06
6.7445e-06
2.02017e-05
3.35849e-05
4.68303e-05
5.98852e-05
7.27178e-05
8.52433e-05
9.74511e-05
0.000109267
0.000120639
0.000131544
0.000141963
0.000151788
0.000161
0.000169618
0.000177549
0.000184738
0.000191249
0.000196956
0.000201922
0.000206094
0.000209439
0.000211991
0.000213664
0.000214511
0.000214469
0.000213611
0.000211928
0.000209408
0.000206041
0.000201859
0.000196893
0.000191197
0.000184685
0.000177453
0.000169555
0.000160936
0.000151714
0.000141867
0.000131491
0.000120617
0.000109204
9.74088e-05
8.51903e-05
7.27072e-05
5.98746e-05
4.68092e-05
3.35849e-05
2.02335e-05
6.77626e-06
-6.68097e-06
-2.01488e-05
-3.35002e-05
-4.67245e-05
-5.97899e-05
-7.26013e-05
-8.51268e-05
-9.73347e-05
-0.00010914
-0.00012049
-0.000131385
-0.000141793
-0.000151608
-0.000160841
-0.000169438
-0.000177379
-0.000184611
-0.000191091
-0.000196829
-0.000201784
-0.000205977
-0.000209334
-0.000211854
-0.000213569
-0.000214437
-0.000214437
-0.00021359
-0.000211906
-0.000209376
-0.00020602
-0.000201848
-0.000196914
-0.000191175
-0.000184706
-0.000177485
-0.000169555
-0.000160947
-0.000151746
-0.00014192
-0.000131544
-0.000120639
-0.000109246
-9.743e-05
-8.52221e-05
-7.27072e-05
-5.98852e-05
-4.68092e-05
-3.35531e-05
-2.01911e-05
-6.73391e-06
6.71274e-06
2.01382e-05
3.3479e-05
4.66609e-05
5.97052e-05
7.24954e-05
8.4968e-05
9.71229e-05
0.000108907
0.000120279
0.000131131
0.000141507
0.000151301
0.000160523
0.000169068
0.000176956
0.000184156
0.000190614
0.000196342
0.000201297
0.000205448
0.000208772
0.000211282
0.000212976
0.000213812
0.000213812
0.000212933
0.00021125
0.00020873
0.000205384
0.000201234
0.000196268
0.000190572
0.000184092
0.000176892
0.000169004
0.000160439
0.000151227
0.000141402
0.000131089
0.000120205
0.000108865
9.70912e-05
8.49468e-05
7.24637e-05
5.96946e-05
4.66715e-05
3.34472e-05
2.01382e-05
6.76568e-06
-6.64921e-06
-2.00641e-05
-3.33943e-05
-4.65762e-05
-5.95994e-05
-7.23578e-05
-8.48727e-05
-9.7017e-05
-0.00010878
-0.00012012
-0.000130972
-0.000141327
-0.000151121
-0.000160312
-0.000168909
-0.000176818
-0.000184007
-0.000190498
-0.000196205
-0.000201139
-0.000205331
-0.000208656
-0.000211165
-0.000212891
-0.000213749
-0.000213738
-0.000212902
-0.000211218
-0.00020872
-0.000205384
-0.000201213
-0.000196268
-0.000190572
-0.000184113
-0.000176903
-0.000169015
-0.000160439
-0.000151259
-0.000141465
-0.000131121
-0.000120268
-0.000108907
-9.71229e-05
-8.49574e-05
-7.24531e-05
-5.96946e-05
-4.66609e-05
-3.34366e-05
-2.01382e-05
-6.72332e-06
6.70215e-06
2.00853e-05
3.33519e-05
4.65339e-05
5.94935e-05
7.22201e-05
8.47033e-05
9.68159e-05
0.000108537
0.000119855
0.000130697
0.000141031
0.000150782
0.000159973
0.000168507
0.000176352
0.000183541
0.000189968
0.000195675
0.00020062
0.00020477
0.000208084
0.000210562
0.000212256
0.000213092
0.000213082
0.000212214
0.00021053
0.000208042
0.000204675
0.000200567
0.000195643
0.000189926
0.000183467
0.000176289
0.000168433
0.000159909
0.000150719
0.000140946
0.000130634
0.000119802
0.000108505
9.67418e-05
8.46609e-05
7.22413e-05
5.94829e-05
4.64915e-05
3.33731e-05
2.00853e-05
6.7445e-06
-6.64921e-06
-2.00006e-05
-3.32884e-05
-4.6428e-05
-5.93876e-05
-7.21249e-05
-8.45657e-05
-9.66888e-05
-0.00010841
-0.000119718
-0.000130538
-0.000140862
-0.000150613
-0.000159761
-0.000168327
-0.000176225
-0.000183404
-0.000189841
-0.000195527
-0.000200493
-0.000204622
-0.000207957
-0.000210477
-0.000212161
-0.000213018
-0.000213018
-0.000212182
-0.000210509
-0.000208
-0.000204707
-0.000200535
-0.000195622
-0.000189937
-0.000183457
-0.00017631
-0.000168443
-0.00015993
-0.000150761
-0.000140989
-0.000130687
-0.000119845
-0.000108547
-9.67947e-05
-8.46609e-05
-7.22307e-05
-5.94935e-05
-4.64915e-05
-3.33519e-05
-2.00641e-05
-6.68097e-06
6.68097e-06
2.00112e-05
3.3246e-05
4.63645e-05
5.92711e-05
7.19766e-05
8.44174e-05
9.64665e-05
0.000108156
0.000119421
0.000130231
0.000140523
0.000150264
0.000159412
0.000167903
0.000175738
0.000182885
0.000189312
0.000194998
0.000199921
0.000204029
0.000207354
0.000209831
0.000211504
0.000212341
0.000212309
0.000211462
0.000209789
0.000207301
0.000203997
0.000199868
0.000194955
0.000189248
0.000182811
0.000175653
0.00016784
0.000159327
0.000150211
0.000140459
0.000130147
0.000119368
0.000108134
9.64453e-05
8.43539e-05
7.19554e-05
5.92711e-05
4.63433e-05
3.32566e-05
2.00112e-05
6.71274e-06
-6.60686e-06
-1.99159e-05
-3.31719e-05
-4.62586e-05
-5.91758e-05
-7.18707e-05
-8.42798e-05
-9.63394e-05
-0.000108007
-0.000119294
-0.000130094
-0.000140364
-0.000150105
-0.00015921
-0.000167713
-0.00017559
-0.000182737
-0.000189185
-0.00019486
-0.000199773
-0.000203891
-0.000207237
-0.000209757
-0.000211419
-0.000212245
-0.000212277
-0.00021143
-0.000209757
-0.000207269
-0.000203976
-0.000199847
-0.000194923
-0.000189238
-0.000182832
-0.000175696
-0.00016785
-0.000159337
-0.000150242
-0.000140502
-0.000130242
-0.000119421
-0.000108156
-9.64559e-05
-8.43751e-05
-7.1966e-05
-5.92711e-05
-4.63433e-05
-3.3246e-05
-1.99794e-05
-6.6598e-06
6.63862e-06
1.99476e-05
3.31508e-05
4.61951e-05
5.907e-05
7.17225e-05
8.40786e-05
9.61171e-05
0.000107785
0.000118976
0.000129744
0.000140004
0.000149713
0.000158819
0.000167278
0.000175103
0.000182239
0.000188613
0.000194278
0.00019918
0.000203277
0.000206581
0.000209069
0.000210721
0.000211546
0.000211557
0.000210689
0.000209027
0.000206538
0.000203224
0.000199137
0.000194214
0.000188571
0.000182144
0.000175029
0.000167215
0.000158734
0.00014966
0.000139951
0.000129681
0.000118945
0.000107711
9.60853e-05
8.40363e-05
7.17013e-05
5.90382e-05
4.61739e-05
3.31402e-05
1.99582e-05
6.68097e-06
-6.59627e-06
-1.98523e-05
-3.30343e-05
-4.60892e-05
-5.89429e-05
-7.1606e-05
-8.39621e-05
-9.599e-05
-0.000107626
-0.000118849
-0.000129607
-0.000139845
-0.000149544
-0.000158639
-0.00016712
-0.000174933
-0.00018207
-0.000188465
-0.00019414
-0.000199053
-0.000203171
-0.000206475
-0.000208984
-0.000210636
-0.000211462
-0.000211494
-0.000210657
-0.000208995
-0.000206507
-0.000203203
-0.000199116
-0.000194203
-0.000188539
-0.000182154
-0.000175039
-0.000167236
-0.000158787
-0.000149681
-0.000139993
-0.000129744
-0.000118998
-0.000107764
-9.60959e-05
-8.4068e-05
-7.17013e-05
-5.907e-05
-4.61845e-05
-3.30766e-05
-1.99265e-05
-6.64921e-06
6.63862e-06
1.98629e-05
3.30025e-05
4.60257e-05
5.88476e-05
7.14472e-05
8.37716e-05
9.57783e-05
0.000107351
0.000118532
0.000129257
0.000139485
0.000149141
0.000158226
0.000166643
0.000174425
0.000181519
0.000187904
0.000193547
0.000198407
0.000202504
0.000205787
0.000208296
0.000209937
0.000210731
0.000210752
0.000209884
0.000208222
0.000205744
0.000202494
0.000198365
0.000193484
0.00018783
0.000181445
0.000174341
0.000166601
0.00015813
0.000149078
0.000139432
0.000129194
0.0001185
0.000107308
9.56935e-05
8.37186e-05
7.14261e-05
5.8837e-05
4.60045e-05
3.30025e-05
1.98629e-05
6.6598e-06
-6.54333e-06
-1.97888e-05
-3.28966e-05
-4.58986e-05
-5.87523e-05
-7.13413e-05
-8.36233e-05
-9.56088e-05
-0.000107224
-0.000118405
-0.00012912
-0.000139326
-0.000148961
-0.000158014
-0.000166484
-0.000174266
-0.000181371
-0.000187745
-0.000193399
-0.000198301
-0.000202409
-0.000205681
-0.000208201
-0.000209852
-0.000210668
-0.000210678
-0.000209852
-0.00020819
-0.000205713
-0.00020243
-0.000198354
-0.000193484
-0.000187819
-0.000181466
-0.000174383
-0.00016659
-0.000158162
-0.00014912
-0.000139453
-0.000129268
-0.000118532
-0.000107361
-9.57253e-05
-8.37398e-05
-7.14472e-05
-5.88264e-05
-4.60045e-05
-3.29919e-05
-1.98417e-05
-6.61744e-06
6.59627e-06
1.97888e-05
3.28966e-05
4.58457e-05
5.86147e-05
7.11614e-05
8.34433e-05
9.53971e-05
0.000106948
0.000118087
0.00012877
0.000138924
0.000148538
0.00015758
0.000165997
0.000173748
0.000180831
0.000187184
0.000192785
0.000197634
0.000201689
0.000204982
0.00020746
0.000209111
0.000209927
0.000209916
0.000209069
0.000207417
0.00020494
0.000201657
0.000197581
0.0001927
0.000187099
0.000180757
0.000173674
0.000165923
0.000157527
0.000148485
0.00013885
0.000128717
0.000118034
0.000106896
9.5323e-05
8.33904e-05
7.11402e-05
5.86147e-05
4.58457e-05
3.28861e-05
1.97676e-05
6.63862e-06
-6.53274e-06
-1.97041e-05
-3.27802e-05
-4.57292e-05
-5.85194e-05
-7.10449e-05
-8.32951e-05
-9.52383e-05
-0.0001068
-0.000117939
-0.000128611
-0.000138765
-0.000148379
-0.0001574
-0.000165817
-0.000173589
-0.000180683
-0.000187025
-0.000192626
-0.000197496
-0.000201626
-0.000204897
-0.000207364
-0.000209005
-0.000209852
-0.000209842
-0.000209027
-0.000207375
-0.000204918
-0.000201636
-0.00019757
-0.000192711
-0.000187099
-0.000180746
-0.000173684
-0.000165944
-0.000157559
-0.000148538
-0.000138913
-0.000128738
-0.000118076
-0.000106938
-9.53441e-05
-8.34116e-05
-7.11508e-05
-5.86041e-05
-4.58245e-05
-3.28649e-05
-1.97782e-05
-6.58568e-06
6.57509e-06
1.97041e-05
3.2759e-05
4.56657e-05
5.84029e-05
7.08755e-05
8.30939e-05
9.50159e-05
0.000106514
0.000117611
0.000128251
0.000138384
0.000147966
0.000156945
0.000165309
0.000173049
0.000180079
0.000186432
0.000191991
0.000196861
0.000200895
0.000204156
0.000206623
0.000208254
0.000209079
0.000209079
0.000208243
0.00020657
0.000204114
0.000200842
0.000196776
0.000191927
0.000186337
0.000180016
0.000172985
0.000165267
0.000156871
0.000147881
0.00013832
0.000128177
0.000117579
0.000106461
9.49312e-05
8.30622e-05
7.08649e-05
5.83712e-05
4.56445e-05
3.27484e-05
1.97147e-05
6.61744e-06
-6.52215e-06
-1.96088e-05
-3.26637e-05
-4.55492e-05
-5.82653e-05
-7.07696e-05
-8.29669e-05
-9.48571e-05
-0.000106356
-0.000117473
-0.000128082
-0.000138204
-0.000147754
-0.000156786
-0.00016514
-0.000172901
-0.000179952
-0.000186273
-0.000191864
-0.000196713
-0.000200779
-0.000204071
-0.000206528
-0.00020818
-0.000208984
-0.000209016
-0.000208169
-0.000206538
-0.000204093
-0.000200832
-0.000196766
-0.000191938
-0.000186347
-0.000180026
-0.000172996
-0.000165277
-0.000156913
-0.000147934
-0.000138352
-0.000128241
-0.000117558
-0.000106493
-9.49842e-05
-8.30833e-05
-7.08649e-05
-5.83606e-05
-4.56339e-05
-3.27378e-05
-1.96723e-05
-6.57509e-06
6.53274e-06
1.96406e-05
3.26214e-05
4.54857e-05
5.81382e-05
7.06002e-05
8.27763e-05
9.46136e-05
0.00010608
0.000117123
0.000127722
0.000137802
0.000147341
0.000156309
0.000164653
0.000172318
0.000179359
0.000185648
0.000191228
0.000196046
0.000200069
0.000203298
0.000205755
0.000207385
0.000208232
0.000208211
0.000207396
0.000205713
0.000203267
0.000200027
0.00019595
0.000191144
0.000185606
0.000179264
0.000172265
0.000164568
0.000156235
0.000147267
0.000137728
0.000127658
0.000117081
0.000106017
9.45924e-05
8.27128e-05
7.05578e-05
5.81276e-05
4.54857e-05
3.26319e-05
1.963e-05
6.58568e-06
-6.49039e-06
-1.95241e-05
-3.25261e-05
-4.53692e-05
-5.80535e-05
-7.04626e-05
-8.26281e-05
-9.44653e-05
-0.000105943
-0.000116965
-0.000127553
-0.000137632
-0.000147172
-0.000156119
-0.000164462
-0.000172202
-0.0001792
-0.0001855
-0.00019108
-0.000195898
-0.000199953
-0.000203224
-0.000205691
-0.000207322
-0.000208127
-0.000208148
-0.000207311
-0.00020567
-0.000203246
-0.000199995
-0.00019595
-0.000191133
-0.000185606
-0.000179296
-0.000172287
-0.00016461
-0.000156256
-0.000147331
-0.00013777
-0.00012769
-0.000117102
-0.000106059
-9.45712e-05
-8.27339e-05
-7.05684e-05
-5.8117e-05
-4.54645e-05
-3.26002e-05
-1.963e-05
-6.53274e-06
6.50098e-06
1.95347e-05
3.24943e-05
4.53057e-05
5.79053e-05
7.03037e-05
8.24163e-05
9.42112e-05
0.000105646
0.000116658
0.000127193
0.000137209
0.000146727
0.000155653
0.000163964
0.000171598
0.000178576
0.000184865
0.000190445
0.000195241
0.000199222
0.000202473
0.000204897
0.000206496
0.000207343
0.000207343
0.000206496
0.000204866
0.00020242
0.00019919
0.000195156
0.000190339
0.000184801
0.000178533
0.000171535
0.000163869
0.000155568
0.000146664
0.000137156
0.000127097
0.000116594
0.000105604
9.41901e-05
8.2374e-05
7.0272e-05
5.78841e-05
4.52739e-05
3.24731e-05
1.95665e-05
6.58568e-06
-6.45863e-06
-1.94606e-05
-3.23884e-05
-4.51786e-05
-5.77994e-05
-7.01767e-05
-8.22893e-05
-9.4063e-05
-0.000105487
-0.000116499
-0.000127013
-0.000137039
-0.000146558
-0.000155473
-0.000163784
-0.00017145
-0.000178449
-0.000184738
-0.000190275
-0.000195082
-0.000199116
-0.000202367
-0.000204791
-0.000206454
-0.000207269
-0.000207248
-0.000206443
-0.000204813
-0.000202377
-0.000199159
-0.000195146
-0.00019036
-0.000184801
-0.000178555
-0.000171556
-0.000163911
-0.000155621
-0.000146706
-0.000137209
-0.00012715
-0.000116605
-0.000105593
-9.41689e-05
-8.24057e-05
-7.02826e-05
-5.78841e-05
-4.52633e-05
-3.24519e-05
-1.95347e-05
-6.51157e-06
6.51157e-06
1.94712e-05
3.23461e-05
4.50939e-05
5.76618e-05
7.00073e-05
8.20669e-05
9.37983e-05
0.00010518
0.00011616
0.000126653
0.000136626
0.000146113
0.000155007
0.000163266
0.000170868
0.000177824
0.000184103
0.000189608
0.000194405
0.000198386
0.000201594
0.000204018
0.000205638
0.000206443
0.000206454
0.000205638
0.000203987
0.000201562
0.000198333
0.000194341
0.000189524
0.000184028
0.00017776
0.000170804
0.000163191
0.000154912
0.000146039
0.000136563
0.000126557
0.000116086
0.000105149
9.37983e-05
8.20563e-05
6.99543e-05
5.76406e-05
4.50939e-05
3.23461e-05
1.94818e-05
6.53274e-06
-6.41627e-06
-1.93759e-05
-3.22614e-05
-4.50092e-05
-5.75559e-05
-6.98802e-05
-8.19187e-05
-9.36713e-05
-0.000105032
-0.000115991
-0.000126483
-0.000136468
-0.000145901
-0.000154785
-0.000163096
-0.000170751