/*--------------------------------*- C++ -*----------------------------------*\
  =========                 |
  \\      /  F ield         | OpenFOAM: The Open Source CFD Toolbox
   \\    /   O peration     | Website:  https://openfoam.org
    \\  /    A nd           | Version:  7
     \\/     M anipulation  |
\*---------------------------------------------------------------------------*/
FoamFile
{
    version     2.0;
    format      ascii;
    class       volScalarField;
    location    "0.045";
    object      gradTy;
}
// * * * * * * * * * * * * * * * * * * * * * * * * * * * * * * * * * * * * * //

dimensions      [0 -1 0 1 0 0 0];

internalField   nonuniform List<scalar> 
10000
(
6.89273e-06
6.90332e-06
6.88214e-06
6.87155e-06
6.86097e-06
6.86097e-06
6.8292e-06
6.8292e-06
6.81862e-06
6.80803e-06
6.79744e-06
6.77626e-06
6.77626e-06
6.73391e-06
6.72332e-06
6.70215e-06
6.67038e-06
6.6598e-06
6.62803e-06
6.60686e-06
6.58568e-06
6.56451e-06
6.53274e-06
6.50098e-06
6.46921e-06
6.43745e-06
6.42686e-06
6.38451e-06
6.36334e-06
6.32098e-06
6.28922e-06
6.28922e-06
6.25746e-06
6.23628e-06
6.20452e-06
6.17275e-06
6.14099e-06
6.14099e-06
6.09864e-06
6.09864e-06
6.07746e-06
6.07746e-06
6.0457e-06
6.0457e-06
6.01393e-06
6.03511e-06
5.99276e-06
6.01393e-06
6.01393e-06
6.02452e-06
6.01393e-06
6.00335e-06
6.00335e-06
6.01393e-06
6.03511e-06
6.03511e-06
6.03511e-06
6.05629e-06
6.05629e-06
6.06687e-06
6.08805e-06
6.11981e-06
6.14099e-06
6.15158e-06
6.17275e-06
6.18334e-06
6.20452e-06
6.24687e-06
6.26804e-06
6.3104e-06
6.34216e-06
6.34216e-06
6.38451e-06
6.38451e-06
6.43745e-06
6.4798e-06
6.49039e-06
6.51157e-06
6.54333e-06
6.58568e-06
6.60686e-06
6.63862e-06
6.6598e-06
6.67038e-06
6.67038e-06
6.72332e-06
6.75509e-06
6.76568e-06
6.76568e-06
6.78685e-06
6.81862e-06
6.8292e-06
6.85038e-06
6.85038e-06
6.87155e-06
6.88214e-06
6.89273e-06
6.89273e-06
6.89273e-06
6.89273e-06
2.0657e-05
2.06676e-05
2.06464e-05
2.06253e-05
2.06041e-05
2.05829e-05
2.05617e-05
2.04982e-05
2.04664e-05
2.04135e-05
2.03711e-05
2.03182e-05
2.02653e-05
2.01806e-05
2.01488e-05
2.00641e-05
2.00112e-05
1.9937e-05
1.98629e-05
1.97782e-05
1.97041e-05
1.96194e-05
1.95453e-05
1.94288e-05
1.93759e-05
1.92806e-05
1.91959e-05
1.91218e-05
1.90477e-05
1.89735e-05
1.88677e-05
1.87935e-05
1.87194e-05
1.86453e-05
1.85818e-05
1.85077e-05
1.84441e-05
1.837e-05
1.83065e-05
1.82536e-05
1.82218e-05
1.81794e-05
1.81371e-05
1.80842e-05
1.8063e-05
1.80418e-05
1.80206e-05
1.801e-05
1.79889e-05
1.79889e-05
1.79995e-05
1.79889e-05
1.79677e-05
1.80206e-05
1.80418e-05
1.80524e-05
1.81053e-05
1.81265e-05
1.81583e-05
1.82218e-05
1.8243e-05
1.83065e-05
1.837e-05
1.84441e-05
1.85077e-05
1.85712e-05
1.86559e-05
1.873e-05
1.87724e-05
1.88782e-05
1.89524e-05
1.90053e-05
1.91112e-05
1.91853e-05
1.92594e-05
1.93759e-05
1.94394e-05
1.95347e-05
1.96194e-05
1.96723e-05
1.9757e-05
1.98417e-05
1.99265e-05
1.99794e-05
2.00429e-05
2.0117e-05
2.01806e-05
2.02441e-05
2.03394e-05
2.03817e-05
2.04241e-05
2.0477e-05
2.04982e-05
2.053e-05
2.05935e-05
2.06041e-05
2.06253e-05
2.06358e-05
2.06464e-05
2.06464e-05
3.43366e-05
3.4326e-05
3.43154e-05
3.42837e-05
3.42413e-05
3.42201e-05
3.41566e-05
3.40825e-05
3.40084e-05
3.39448e-05
3.38601e-05
3.37966e-05
3.3659e-05
3.35743e-05
3.34578e-05
3.33625e-05
3.3246e-05
3.3119e-05
3.30131e-05
3.28966e-05
3.27272e-05
3.26214e-05
3.24625e-05
3.23249e-05
3.21873e-05
3.2039e-05
3.19014e-05
3.17849e-05
3.16155e-05
3.1499e-05
3.13932e-05
3.12238e-05
3.11179e-05
3.09908e-05
3.08638e-05
3.07579e-05
3.0652e-05
3.05355e-05
3.04508e-05
3.03555e-05
3.02814e-05
3.01967e-05
3.01332e-05
3.00803e-05
3.00379e-05
2.99744e-05
2.99532e-05
2.99214e-05
2.99214e-05
2.98897e-05
2.98685e-05
2.99003e-05
2.9932e-05
2.99638e-05
2.99532e-05
3.00273e-05
3.00697e-05
3.01226e-05
3.0165e-05
3.02603e-05
3.0345e-05
3.04402e-05
3.05249e-05
3.06414e-05
3.07685e-05
3.08744e-05
3.09802e-05
3.10861e-05
3.12343e-05
3.1319e-05
3.14567e-05
3.15943e-05
3.17531e-05
3.18908e-05
3.20178e-05
3.21661e-05
3.22931e-05
3.24414e-05
3.25684e-05
3.27061e-05
3.28437e-05
3.2939e-05
3.30766e-05
3.32037e-05
3.33413e-05
3.34366e-05
3.35531e-05
3.36696e-05
3.37754e-05
3.38707e-05
3.39448e-05
3.40295e-05
3.40719e-05
3.4146e-05
3.41778e-05
3.42201e-05
3.42625e-05
3.42837e-05
3.43154e-05
3.42942e-05
4.78891e-05
4.78574e-05
4.78362e-05
4.78044e-05
4.77727e-05
4.76985e-05
4.76244e-05
4.75397e-05
4.74444e-05
4.73386e-05
4.72115e-05
4.70844e-05
4.69362e-05
4.68092e-05
4.66715e-05
4.65233e-05
4.63539e-05
4.61951e-05
4.60257e-05
4.58668e-05
4.56657e-05
4.54751e-05
4.52739e-05
4.50939e-05
4.48822e-05
4.4681e-05
4.4501e-05
4.42786e-05
4.41092e-05
4.39081e-05
4.37281e-05
4.35798e-05
4.33787e-05
4.32093e-05
4.30399e-05
4.28916e-05
4.27434e-05
4.25952e-05
4.24787e-05
4.23728e-05
4.22246e-05
4.21187e-05
4.20234e-05
4.19493e-05
4.18858e-05
4.18117e-05
4.17481e-05
4.17375e-05
4.16952e-05
4.17058e-05
4.16952e-05
4.17164e-05
4.1727e-05
4.17587e-05
4.18328e-05
4.18858e-05
4.19493e-05
4.20234e-05
4.21505e-05
4.22246e-05
4.23411e-05
4.24575e-05
4.25952e-05
4.27222e-05
4.28599e-05
4.30293e-05
4.32093e-05
4.33681e-05
4.35375e-05
4.37175e-05
4.38869e-05
4.40775e-05
4.42681e-05
4.44586e-05
4.4681e-05
4.48504e-05
4.50516e-05
4.52421e-05
4.54116e-05
4.56021e-05
4.57927e-05
4.59727e-05
4.61633e-05
4.63327e-05
4.65021e-05
4.66503e-05
4.68197e-05
4.69468e-05
4.70739e-05
4.72009e-05
4.7328e-05
4.74338e-05
4.75291e-05
4.76138e-05
4.7688e-05
4.77515e-05
4.7815e-05
4.78362e-05
4.78468e-05
4.78679e-05
6.12299e-05
6.11981e-05
6.11664e-05
6.11346e-05
6.10605e-05
6.09864e-05
6.09123e-05
6.07958e-05
6.06793e-05
6.05311e-05
6.03934e-05
6.02135e-05
6.00758e-05
5.98852e-05
5.96946e-05
5.94935e-05
5.92923e-05
5.90594e-05
5.8837e-05
5.86041e-05
5.83923e-05
5.81276e-05
5.78947e-05
5.76724e-05
5.73971e-05
5.71535e-05
5.68994e-05
5.66665e-05
5.64336e-05
5.61689e-05
5.59465e-05
5.56924e-05
5.54807e-05
5.52689e-05
5.50677e-05
5.4856e-05
5.46654e-05
5.44748e-05
5.4316e-05
5.41678e-05
5.40195e-05
5.38713e-05
5.37654e-05
5.36595e-05
5.35537e-05
5.34901e-05
5.34266e-05
5.33737e-05
5.33313e-05
5.33313e-05
5.33313e-05
5.33525e-05
5.33948e-05
5.3416e-05
5.34901e-05
5.35642e-05
5.36489e-05
5.37548e-05
5.38713e-05
5.39984e-05
5.4136e-05
5.43054e-05
5.44854e-05
5.46548e-05
5.48454e-05
5.5036e-05
5.52477e-05
5.54595e-05
5.56924e-05
5.59254e-05
5.61583e-05
5.64124e-05
5.66347e-05
5.68994e-05
5.71535e-05
5.73759e-05
5.76194e-05
5.78629e-05
5.81065e-05
5.835e-05
5.85829e-05
5.88264e-05
5.90488e-05
5.92605e-05
5.94829e-05
5.96841e-05
5.98641e-05
6.00546e-05
6.0224e-05
6.03934e-05
6.05311e-05
6.06581e-05
6.08064e-05
6.09017e-05
6.09864e-05
6.10605e-05
6.11346e-05
6.11664e-05
6.11981e-05
6.12299e-05
7.43271e-05
7.43166e-05
7.42954e-05
7.42213e-05
7.41471e-05
7.40519e-05
7.39354e-05
7.38083e-05
7.36707e-05
7.35013e-05
7.33107e-05
7.31201e-05
7.29401e-05
7.2739e-05
7.24954e-05
7.22519e-05
7.19766e-05
7.17331e-05
7.14684e-05
7.11614e-05
7.08861e-05
7.0579e-05
7.0272e-05
7.00073e-05
6.97002e-05
6.94144e-05
6.90861e-05
6.88108e-05
6.84932e-05
6.82179e-05
6.79109e-05
6.76356e-05
6.73497e-05
6.70956e-05
6.68521e-05
6.66086e-05
6.63756e-05
6.61744e-05
6.59415e-05
6.57615e-05
6.55815e-05
6.54439e-05
6.52745e-05
6.5158e-05
6.50415e-05
6.49674e-05
6.48933e-05
6.4798e-05
6.4798e-05
6.47663e-05
6.47768e-05
6.47874e-05
6.48192e-05
6.48827e-05
6.49463e-05
6.5031e-05
6.51368e-05
6.52639e-05
6.54015e-05
6.55709e-05
6.57721e-05
6.59521e-05
6.61533e-05
6.63756e-05
6.66191e-05
6.68521e-05
6.71062e-05
6.73603e-05
6.76144e-05
6.79109e-05
6.81967e-05
6.85038e-05
6.88003e-05
6.90861e-05
6.93826e-05
6.9679e-05
6.99861e-05
7.02931e-05
7.0579e-05
7.08861e-05
7.11508e-05
7.14366e-05
7.16908e-05
7.19766e-05
7.22201e-05
7.24637e-05
7.27072e-05
7.29507e-05
7.31413e-05
7.33319e-05
7.35119e-05
7.36919e-05
7.38083e-05
7.3946e-05
7.40519e-05
7.41471e-05
7.42107e-05
7.42742e-05
7.43166e-05
7.43483e-05
8.71279e-05
8.71279e-05
8.70856e-05
8.70432e-05
8.69479e-05
8.68103e-05
8.66832e-05
8.65456e-05
8.63868e-05
8.61856e-05
8.5995e-05
8.57515e-05
8.5508e-05
8.52327e-05
8.4968e-05
8.46927e-05
8.43857e-05
8.40998e-05
8.3761e-05
8.34433e-05
8.31045e-05
8.27657e-05
8.24269e-05
8.20563e-05
8.17175e-05
8.13363e-05
8.09869e-05
8.06481e-05
8.02987e-05
7.99599e-05
7.96211e-05
7.93035e-05
7.89752e-05
7.86576e-05
7.83823e-05
7.80753e-05
7.78106e-05
7.75988e-05
7.73447e-05
7.71012e-05
7.69106e-05
7.67094e-05
7.65506e-05
7.63918e-05
7.62647e-05
7.61483e-05
7.60636e-05
7.60106e-05
7.59577e-05
7.59153e-05
7.59259e-05
7.59365e-05
7.59789e-05
7.60424e-05
7.61271e-05
7.62436e-05
7.63812e-05
7.65294e-05
7.66777e-05
7.68682e-05
7.70906e-05
7.73023e-05
7.75459e-05
7.78212e-05
7.80753e-05
7.83929e-05
7.86682e-05
7.89858e-05
7.9314e-05
7.96211e-05
7.99599e-05
8.02987e-05
8.06481e-05
8.10081e-05
8.13363e-05
8.16963e-05
8.20351e-05
8.23845e-05
8.27339e-05
8.31045e-05
8.34327e-05
8.37716e-05
8.40574e-05
8.43751e-05
8.46609e-05
8.4968e-05
8.52433e-05
8.55186e-05
8.57409e-05
8.59738e-05
8.61856e-05
8.63762e-05
8.6535e-05
8.66621e-05
8.68209e-05
8.69373e-05
8.70326e-05
8.70856e-05
8.71385e-05
8.71385e-05
9.96217e-05
9.96217e-05
9.95475e-05
9.94734e-05
9.93887e-05
9.92511e-05
9.91029e-05
9.89229e-05
9.87111e-05
9.85205e-05
9.8277e-05
9.80123e-05
9.77264e-05
9.74406e-05
9.71229e-05
9.68053e-05
9.64876e-05
9.61065e-05
9.57465e-05
9.53865e-05
9.50053e-05
9.46242e-05
9.42324e-05
9.38195e-05
9.34171e-05
9.30148e-05
9.26125e-05
9.21995e-05
9.18078e-05
9.14054e-05
9.10243e-05
9.06431e-05
9.02937e-05
8.99337e-05
8.95737e-05
8.92667e-05
8.89596e-05
8.86632e-05
8.83985e-05
8.81338e-05
8.78903e-05
8.76785e-05
8.74773e-05
8.72867e-05
8.71491e-05
8.7022e-05
8.69373e-05
8.68844e-05
8.68209e-05
8.67785e-05
8.67785e-05
8.67997e-05
8.68421e-05
8.69373e-05
8.7022e-05
8.71491e-05
8.72973e-05
8.74667e-05
8.76679e-05
8.78903e-05
8.81126e-05
8.83773e-05
8.86526e-05
8.8949e-05
8.92561e-05
8.95843e-05
8.99125e-05
9.02937e-05
9.06537e-05
9.10349e-05
9.14054e-05
9.17972e-05
9.21784e-05
9.25913e-05
9.2983e-05
9.33748e-05
9.37877e-05
9.41795e-05
9.45818e-05
9.49736e-05
9.53653e-05
9.57359e-05
9.61171e-05
9.64771e-05
9.68159e-05
9.71441e-05
9.74511e-05
9.77476e-05
9.80123e-05
9.82664e-05
9.85099e-05
9.87111e-05
9.89229e-05
9.90923e-05
9.92405e-05
9.93676e-05
9.94628e-05
9.95581e-05
9.96005e-05
9.96323e-05
0.000111702
0.000111671
0.000111639
0.000111544
0.000111406
0.000111279
0.000111131
0.000110919
0.000110707
0.000110443
0.000110188
0.000109903
0.000109595
0.000109278
0.000108907
0.000108537
0.000108177
0.000107774
0.000107361
0.000106917
0.000106514
0.000106091
0.000105657
0.000105191
0.000104736
0.00010428
0.000103846
0.000103391
0.000102936
0.000102512
0.000102078
0.000101655
0.000101242
0.000100839
0.000100458
0.000100109
9.97381e-05
9.94099e-05
9.91134e-05
9.8817e-05
9.85523e-05
9.83299e-05
9.80758e-05
9.78852e-05
9.7737e-05
9.75994e-05
9.74723e-05
9.73876e-05
9.73241e-05
9.73135e-05
9.72923e-05
9.73453e-05
9.73982e-05
9.74617e-05
9.75782e-05
9.77264e-05
9.78958e-05
9.80864e-05
9.83193e-05
9.85523e-05
9.87958e-05
9.90923e-05
9.93781e-05
9.97381e-05
0.000100088
0.000100437
0.000100839
0.000101242
0.000101644
0.000102067
0.000102512
0.000102936
0.000103391
0.000103804
0.000104259
0.000104725
0.000105159
0.000105614
0.000106059
0.000106472
0.000106927
0.00010734
0.000107764
0.000108166
0.000108568
0.000108918
0.000109278
0.000109585
0.000109924
0.000110178
0.000110453
0.000110697
0.000110898
0.00011112
0.000111268
0.000111406
0.000111533
0.000111618
0.000111671
0.000111702
0.000123339
0.000123317
0.000123243
0.000123169
0.000123042
0.000122904
0.000122703
0.000122492
0.000122248
0.000122005
0.000121697
0.000121369
0.00012103
0.000120649
0.000120279
0.000119876
0.000119432
0.000118998
0.000118553
0.000118087
0.0001176
0.000117123
0.000116636
0.000116149
0.000115662
0.000115154
0.000114656
0.000114148
0.000113693
0.000113185
0.000112708
0.000112253
0.000111777
0.000111332
0.000110919
0.000110506
0.000110146
0.000109775
0.000109426
0.000109119
0.000108844
0.000108547
0.000108304
0.000108113
0.000107912
0.000107764
0.000107626
0.00010752
0.000107478
0.000107446
0.000107446
0.000107467
0.000107531
0.000107616
0.000107764
0.000107901
0.000108092
0.000108314
0.000108558
0.000108801
0.000109108
0.000109405
0.000109786
0.000110125
0.000110527
0.000110919
0.000111364
0.000111777
0.000112232
0.000112698
0.000113195
0.000113682
0.000114138
0.000114635
0.000115112
0.000115631
0.000116128
0.000116615
0.000117113
0.0001176
0.000118066
0.000118542
0.000119008
0.000119442
0.000119866
0.000120289
0.00012067
0.00012102
0.000121359
0.000121676
0.000121973
0.000122227
0.000122502
0.000122693
0.000122862
0.000123053
0.000123159
0.000123264
0.000123307
0.000123339
0.000134509
0.000134445
0.000134392
0.000134276
0.00013417
0.000134001
0.000133778
0.000133556
0.000133302
0.000133005
0.000132667
0.000132338
0.000131957
0.000131565
0.000131142
0.000130687
0.000130242
0.000129765
0.000129257
0.000128749
0.00012822
0.00012769
0.000127161
0.000126653
0.000126091
0.000125562
0.000125022
0.000124482
0.000123942
0.000123413
0.000122883
0.000122386
0.000121867
0.000121401
0.000120925
0.000120512
0.000120099
0.000119696
0.000119326
0.000118987
0.000118648
0.000118352
0.000118098
0.000117865
0.000117642
0.000117483
0.000117346
0.00011724
0.000117198
0.000117145
0.000117166
0.000117176
0.000117261
0.000117367
0.000117483
0.000117663
0.000117875
0.000118108
0.000118362
0.000118659
0.000118966
0.000119315
0.000119696
0.000120078
0.000120501
0.000120956
0.000121401
0.000121888
0.000122375
0.000122873
0.000123402
0.000123932
0.000124471
0.000125011
0.000125551
0.000126081
0.000126621
0.000127171
0.000127711
0.000128251
0.00012876
0.000129268
0.000129755
0.000130231
0.000130697
0.000131152
0.000131555
0.000131957
0.000132338
0.000132709
0.000133016
0.000133302
0.000133556
0.000133789
0.000134022
0.000134159
0.000134308
0.000134403
0.000134488
0.000134509
0.000145107
0.000145076
0.000144991
0.000144874
0.000144726
0.000144557
0.000144345
0.000144101
0.000143816
0.000143498
0.000143149
0.000142778
0.000142365
0.000141931
0.000141486
0.00014102
0.000140533
0.000139993
0.000139485
0.000138913
0.000138352
0.000137791
0.000137219
0.000136626
0.000136044
0.000135472
0.00013489
0.000134308
0.000133704
0.000133143
0.000132592
0.000132031
0.000131512
0.000131004
0.000130507
0.000130041
0.000129585
0.000129151
0.000128738
0.000128336
0.000127997
0.00012768
0.000127436
0.000127171
0.00012696
0.000126769
0.000126653
0.000126515
0.000126441
0.000126409
0.000126398
0.000126451
0.000126526
0.000126621
0.000126769
0.00012696
0.000127182
0.000127426
0.000127711
0.000128018
0.000128378
0.00012876
0.00012913
0.000129585
0.000130041
0.000130507
0.000130994
0.000131512
0.000132042
0.000132592
0.000133143
0.000133715
0.000134297
0.00013489
0.000135472
0.000136055
0.000136658
0.00013723
0.000137823
0.000138384
0.000138945
0.000139485
0.000140036
0.000140544
0.000141031
0.000141486
0.000141963
0.000142407
0.000142799
0.000143191
0.00014353
0.000143837
0.000144112
0.000144356
0.000144567
0.000144747
0.000144896
0.000145023
0.000145097
0.000145129
0.000155145
0.000155102
0.000155028
0.000154912
0.000154742
0.000154562
0.000154329
0.000154075
0.000153758
0.000153408
0.000153059
0.000152667
0.000152222
0.000151767
0.00015128
0.000150782
0.000150221
0.000149692
0.00014911
0.000148538
0.000147924
0.00014731
0.000146717
0.000146092
0.000145488
0.000144864
0.000144229
0.000143583
0.000142969
0.000142354
0.000141751
0.000141158
0.000140607
0.000140067
0.000139549
0.000139019
0.000138522
0.000138056
0.000137632
0.000137241
0.00013687
0.000136542
0.000136235
0.00013597
0.000135726
0.000135536
0.000135377
0.000135271
0.000135165
0.000135134
0.000135155
0.000135186
0.00013525
0.000135398
0.000135578
0.000135748
0.000135981
0.000136235
0.000136542
0.000136881
0.000137251
0.000137664
0.000138088
0.000138564
0.00013904
0.000139538
0.000140046
0.000140607
0.000141179
0.000141772
0.000142376
0.000142969
0.000143604
0.00014425
0.000144864
0.000145488
0.000146113
0.000146748
0.000147341
0.000147955
0.00014857
0.000149173
0.000149734
0.000150285
0.000150793
0.000151312
0.000151799
0.000152254
0.000152678
0.00015308
0.00015344
0.000153789
0.000154096
0.000154351
0.000154594
0.000154774
0.000154922
0.000155039
0.000155123
0.000155176
0.0001646
0.000164536
0.000164451
0.000164346
0.000164176
0.000163964
0.000163721
0.000163435
0.000163107
0.000162757
0.000162366
0.000161932
0.000161497
0.00016101
0.000160502
0.000159962
0.00015939
0.000158808
0.000158183
0.00015758
0.000156955
0.000156299
0.000155621
0.000154965
0.000154308
0.000153641
0.000152985
0.000152318
0.000151672
0.000151015
0.00015038
0.000149766
0.000149163
0.00014857
0.000148008
0.000147468
0.000146981
0.000146494
0.000146028
0.000145594
0.000145203
0.000144853
0.000144514
0.000144239
0.000143996
0.000143794
0.000143636
0.000143487
0.000143403
0.000143339
0.00014336
0.000143413
0.000143498
0.000143646
0.000143794
0.000144006
0.000144239
0.000144546
0.000144853
0.000145224
0.000145616
0.000146039
0.000146516
0.000146971
0.00014749
0.000148019
0.000148591
0.000149163
0.000149755
0.000150401
0.000151015
0.000151672
0.000152349
0.000152995
0.000153673
0.000154351
0.000154996
0.000155674
0.00015632
0.000156955
0.00015759
0.000158226
0.000158819
0.000159422
0.000159973
0.000160513
0.000161032
0.000161508
0.000161984
0.000162387
0.000162779
0.000163117
0.000163446
0.000163742
0.000163996
0.000164197
0.000164356
0.000164483
0.000164579
0.00016461
0.000173356
0.000173345
0.000173239
0.000173112
0.000172932
0.000172699
0.000172456
0.000172159
0.00017181
0.000171439
0.000171016
0.000170571
0.000170095
0.000169587
0.000169057
0.000168454
0.000167882
0.000167257
0.000166622
0.000165955
0.00016532
0.000164653
0.000163954
0.000163244
0.000162524
0.000161836
0.000161127
0.000160439
0.00015974
0.000159052
0.000158395
0.000157749
0.000157135
0.0001565
0.000155907
0.000155325
0.000154785
0.000154298
0.000153789
0.000153366
0.000152942
0.000152572
0.000152233
0.000151915
0.000151682
0.000151471
0.000151269
0.000151164
0.000151047
0.000151026
0.000151015
0.000151058
0.000151164
0.000151269
0.000151449
0.000151682
0.000151937
0.000152244
0.000152572
0.000152953
0.000153376
0.000153789
0.000154287
0.000154806
0.000155367
0.000155939
0.000156511
0.000157125
0.000157781
0.000158416
0.000159083
0.000159761
0.000160449
0.000161127
0.000161868
0.000162567
0.000163276
0.000163975
0.000164674
0.000165362
0.000165997
0.000166654
0.000167289
0.000167893
0.000168538
0.000169089
0.000169608
0.000170137
0.000170614
0.000171048
0.000171461
0.000171831
0.000172159
0.000172466
0.000172721
0.000172943
0.000173123
0.000173261
0.000173335
0.000173377
0.000181466
0.000181424
0.000181339
0.000181202
0.000181022
0.000180789
0.000180524
0.000180217
0.000179867
0.000179476
0.000179031
0.000178565
0.000178046
0.000177506
0.000176935
0.000176352
0.000175728
0.000175071
0.000174404
0.000173737
0.000173038
0.000172318
0.000171609
0.000170868
0.000170137
0.000169396
0.000168655
0.000167914
0.000167194
0.000166484
0.000165807
0.00016514
0.000164473
0.000163827
0.000163191
0.000162588
0.000162016
0.000161476
0.000161
0.000160523
0.000160068
0.000159676
0.000159337
0.000159041
0.000158766
0.000158512
0.000158332
0.000158205
0.00015812
0.000158078
0.000158088
0.00015813
0.000158226
0.000158353
0.000158533
0.000158766
0.000159041
0.000159348
0.000159719
0.000160132
0.000160523
0.000161021
0.000161497
0.000162027
0.000162599
0.000163213
0.000163848
0.000164483
0.00016514
0.000165828
0.000166516
0.000167236
0.000167956
0.000168665
0.000169417
0.000170158
0.000170899
0.000171619
0.00017235
0.00017307
0.000173769
0.000174425
0.000175113
0.000175759
0.000176395
0.000176988
0.00017757
0.000178068
0.000178565
0.000179031
0.000179465
0.000179857
0.000180227
0.000180534
0.000180799
0.000181022
0.000181223
0.000181339
0.000181424
0.000181487
0.000188846
0.000188782
0.000188708
0.000188581
0.00018838
0.000188147
0.000187872
0.000187523
0.000187194
0.00018676
0.000186315
0.000185807
0.000185288
0.000184748
0.000184124
0.000183499
0.000182874
0.000182207
0.000181519
0.00018081
0.000180069
0.000179327
0.000178576
0.000177803
0.000177051
0.000176278
0.000175516
0.000174753
0.000173991
0.000173271
0.000172541
0.000171821
0.000171132
0.000170455
0.000169809
0.000169195
0.000168602
0.00016803
0.000167533
0.000167035
0.00016659
0.000166167
0.000165817
0.000165478
0.000165182
0.000164949
0.000164758
0.000164621
0.000164526
0.000164483
0.000164462
0.000164536
0.000164621
0.00016478
0.000164981
0.000165214
0.0001655
0.000165807
0.000166188
0.000166601
0.000167056
0.000167533
0.000168062
0.000168623
0.000169195
0.00016983
0.000170476
0.000171143
0.000171874
0.000172551
0.000173282
0.000174034
0.000174753
0.000175537
0.000176289
0.000177072
0.000177813
0.000178586
0.000179338
0.000180079
0.000180831
0.00018153
0.000182239
0.000182906
0.000183531
0.000184166
0.000184759
0.00018532
0.000185828
0.000186315
0.00018676
0.000187173
0.000187544
0.000187861
0.000188147
0.000188391
0.00018856
0.000188708
0.000188814
0.000188857
0.000195474
0.000195442
0.000195326
0.000195178
0.000194998
0.000194743
0.000194447
0.000194129
0.000193748
0.000193325
0.000192859
0.000192361
0.000191811
0.000191239
0.000190635
0.000189989
0.000189322
0.000188624
0.000187904
0.000187163
0.0001864
0.000185617
0.000184844
0.000184081
0.000183277
0.000182472
0.000181699
0.000180916
0.000180143
0.000179359
0.000178618
0.000177877
0.000177146
0.000176448
0.00017577
0.000175145
0.000174531
0.000173949
0.000173409
0.000172922
0.000172456
0.000172043
0.00017163
0.000171281
0.000170995
0.000170762
0.000170561
0.000170412
0.000170317
0.000170285
0.000170264
0.000170317
0.000170423
0.000170592
0.000170772
0.000171027
0.000171302
0.000171662
0.000172043
0.000172456
0.000172922
0.00017343
0.00017397
0.000174552
0.000175156
0.000175791
0.000176469
0.000177189
0.000177898
0.000178629
0.00017938
0.000180122
0.000180916
0.000181689
0.000182472
0.000183266
0.000184071
0.000184854
0.000185638
0.000186411
0.000187184
0.000187914
0.000188624
0.000189322
0.00019
0.000190646
0.000191249
0.000191821
0.000192361
0.000192859
0.000193335
0.000193769
0.000194129
0.0001945
0.000194775
0.000195008
0.000195209
0.000195358
0.000195453
0.000195495
0.000201329
0.000201276
0.000201181
0.000201033
0.000200821
0.000200577
0.000200281
0.000199932
0.00019954
0.000199106
0.00019865
0.000198142
0.000197581
0.000196967
0.000196332
0.000195675
0.000194976
0.000194278
0.000193558
0.000192785
0.000192001
0.000191207
0.000190392
0.000189608
0.000188782
0.000187978
0.000187152
0.000186347
0.000185543
0.000184759
0.000183976
0.000183192
0.00018244
0.000181731
0.000181064
0.000180397
0.000179762
0.000179169
0.000178597
0.000178078
0.000177612
0.000177178
0.000176786
0.000176437
0.00017613
0.000175876
0.000175696
0.000175558
0.000175442
0.000175368
0.000175378
0.000175421
0.000175537
0.000175675
0.000175897
0.000176119
0.000176437
0.000176797
0.000177178
0.000177612
0.000178089
0.000178629
0.000179179
0.000179783
0.000180418
0.000181085
0.000181763
0.000182472
0.000183203
0.000183986
0.000184759
0.000185543
0.000186326
0.000187152
0.000187957
0.000188772
0.000189608
0.000190413
0.000191228
0.000191991
0.000192774
0.000193536
0.000194278
0.000195008
0.000195686
0.000196332
0.000196967
0.00019757
0.000198132
0.00019865
0.000199137
0.000199561
0.000199963
0.000200313
0.000200609
0.000200874
0.000201075
0.000201223
0.000201319
0.000201371
0.000206401
0.000206327
0.000206253
0.000206083
0.000205893
0.000205649
0.000205321
0.000204971
0.000204569
0.000204124
0.000203637
0.000203108
0.000202536
0.000201933
0.000201276
0.000200588
0.000199879
0.000199169
0.000198396
0.000197634
0.000196829
0.000196035
0.000195199
0.000194362
0.000193515
0.0001927
0.000191864
0.000191048
0.000190222
0.000189397
0.000188581
0.000187798
0.000187046
0.000186305
0.000185606
0.000184928
0.000184293
0.000183669
0.000183086
0.000182557
0.000182101
0.000181625
0.000181223
0.000180884
0.000180577
0.000180323
0.000180122
0.000179952
0.000179867
0.000179804
0.000179825
0.000179846
0.000179973
0.00018009
0.000180312
0.000180566
0.000180894
0.000181233
0.000181657
0.000182091
0.000182589
0.000183129
0.000183711
0.000184314
0.00018496
0.000185638
0.000186337
0.000187057
0.000187808
0.000188592
0.000189407
0.000190222
0.000191027
0.000191885
0.000192721
0.000193547
0.000194394
0.00019522
0.000196025
0.000196861
0.000197634
0.000198439
0.00019918
0.00019991
0.000200609
0.000201297
0.000201933
0.000202536
0.000203119
0.000203658
0.000204146
0.000204611
0.000205024
0.000205353
0.000205681
0.000205935
0.000206147
0.000206295
0.00020639
0.000206454
0.000210657
0.000210615
0.000210498
0.00021035
0.000210138
0.000209874
0.000209556
0.000209196
0.000208772
0.000208317
0.00020782
0.00020728
0.000206697
0.000206062
0.000205427
0.000204738
0.000203997
0.000203246
0.000202483
0.0002017
0.000200895
0.000200069
0.000199222
0.000198343
0.000197507
0.000196649
0.000195802
0.000194955
0.000194098
0.000193304
0.000192456
0.000191684
0.000190911
0.000190169
0.000189439
0.00018874
0.000188084
0.000187459
0.000186877
0.000186326
0.000185818
0.000185373
0.000184971
0.000184611
0.000184293
0.000184018
0.000183817
0.000183647
0.000183552
0.00018352
0.00018351
0.000183573
0.000183669
0.000183838
0.000184028
0.000184304
0.0001846
0.000184971
0.000185373
0.000185839
0.000186337
0.000186887
0.00018748
0.000188105
0.000188772
0.00018945
0.00019018
0.000190911
0.000191694
0.000192467
0.000193282
0.000194119
0.000194976
0.000195792
0.00019667
0.000197517
0.000198343
0.000199233
0.000200069
0.000200895
0.000201721
0.000202515
0.000203277
0.000204008
0.000204738
0.000205427
0.000206073
0.000206718
0.00020729
0.000207841
0.000208349
0.000208815
0.000209217
0.000209588
0.000209905
0.00021017
0.000210382
0.000210551
0.000210647
0.000210699
0.000214088
0.000214003
0.000213897
0.000213738
0.000213537
0.000213262
0.000212976
0.000212584
0.000212182
0.000211716
0.000211208
0.000210647
0.000210043
0.000209418
0.000208751
0.000208063
0.000207322
0.000206538
0.000205755
0.000204961
0.000204156
0.000203288
0.000202462
0.000201583
0.000200704
0.000199836
0.000198968
0.0001981
0.000197263
0.000196416
0.000195612
0.000194796
0.000194002
0.000193272
0.000192531
0.0001918
0.000191133
0.000190519
0.000189905
0.000189344
0.000188825
0.00018837
0.000187957
0.000187618
0.00018729
0.000187014
0.000186803
0.000186644
0.000186538
0.000186517
0.000186495
0.000186559
0.000186665
0.000186824
0.000187035
0.0001873
0.000187618
0.000187999
0.000188401
0.000188867
0.000189397
0.000189937
0.000190529
0.000191154
0.000191821
0.00019252
0.000193251
0.000194034
0.000194796
0.000195612
0.000196438
0.000197274
0.000198132
0.00019901
0.000199847
0.000200736
0.000201615
0.000202473
0.000203341
0.000204188
0.000205003
0.000205808
0.000206591
0.000207354
0.000208074
0.000208783
0.000209439
0.000210075
0.000210657
0.000211218
0.000211737
0.000212192
0.000212626
0.000212997
0.000213315
0.00021359
0.000213802
0.000213939
0.000214066
0.000214119
0.000216639
0.000216618
0.000216491
0.000216322
0.00021611
0.000215845
0.000215496
0.000215136
0.000214691
0.000214225
0.000213738
0.000213166
0.000212552
0.000211928
0.000211261
0.000210541
0.00020981
0.000209037
0.000208243
0.000207428
0.000206613
0.000205744
0.000204866
0.000204018
0.00020314
0.00020225
0.000201371
0.000200503
0.000199624
0.000198777
0.000197962
0.000197147
0.000196353
0.000195569
0.000194828
0.00019414
0.000193441
0.000192806
0.000192224
0.000191641
0.000191112
0.000190646
0.000190244
0.000189862
0.000189566
0.000189291
0.000189058
0.000188899
0.000188793
0.000188719
0.00018874
0.000188804
0.000188888
0.000189058
0.00018928
0.000189534
0.000189862
0.000190233
0.000190667
0.000191122
0.000191641
0.000192202
0.000192816
0.000193473
0.00019414
0.000194849
0.000195601
0.000196353
0.000197147
0.000197962
0.000198799
0.000199656
0.000200535
0.000201414
0.000202293
0.000203171
0.000204061
0.000204897
0.000205776
0.000206634
0.00020746
0.000208264
0.000209058
0.000209831
0.000210572
0.000211271
0.000211949
0.000212584
0.000213198
0.000213759
0.000214278
0.000214765
0.000215199
0.000215559
0.000215888
0.000216131
0.000216364
0.000216544
0.00021666
0.000216713
0.000218397
0.000218355
0.000218227
0.000218069
0.000217836
0.00021755
0.000217243
0.000216851
0.000216417
0.000215951
0.000215422
0.000214871
0.000214257
0.000213632
0.000212944
0.000212224
0.000211483
0.000210699
0.000209916
0.000209058
0.000208211
0.000207375
0.000206507
0.000205617
0.000204728
0.000203838
0.00020296
0.000202091
0.000201234
0.000200355
0.000199497
0.000198693
0.000197909
0.000197126
0.000196363
0.000195675
0.000194987
0.000194331
0.000193738
0.000193166
0.000192647
0.000192181
0.000191736
0.000191377
0.000191048
0.000190784
0.000190561
0.000190402
0.000190307
0.000190212
0.000190244
0.000190275
0.000190413
0.000190561
0.000190773
0.000191027
0.000191377
0.000191747
0.000192171
0.000192658
0.000193176
0.000193727
0.000194331
0.000194998
0.000195686
0.000196395
0.000197147
0.00019792
0.000198725
0.00019955
0.000200397
0.000201276
0.000202144
0.000203023
0.000203923
0.00020476
0.000205628
0.000206517
0.000207385
0.000208254
0.00020909
0.000209905
0.000210721
0.000211483
0.000212214
0.000212955
0.000213622
0.000214289
0.000214892
0.000215464
0.000215983
0.000216459
0.000216893
0.000217264
0.000217571
0.000217889
0.0002181
0.00021827
0.000218365
0.000218439
0.000219276
0.000219202
0.000219074
0.000218916
0.000218683
0.000218407
0.000218079
0.000217709
0.000217285
0.000216819
0.000216279
0.000215718
0.000215115
0.000214458
0.000213781
0.000213061
0.000212319
0.000211546
0.000210742
0.000209905
0.000209037
0.00020819
0.000207311
0.000206433
0.000205564
0.000204664
0.000203764
0.000202886
0.000202017
0.00020116
0.000200302
0.000199466
0.000198682
0.000197888
0.000197147
0.000196427
0.00019576
0.000195114
0.000194489
0.000193928
0.000193409
0.000192922
0.000192509
0.000192118
0.0001918
0.000191535
0.000191313
0.000191144
0.000191038
0.000190985
0.000190974
0.000191027
0.000191133
0.000191313
0.000191514
0.000191811
0.000192128
0.000192509
0.000192944
0.000193431
0.000193939