/*--------------------------------*- C++ -*----------------------------------*\
  =========                 |
  \\      /  F ield         | OpenFOAM: The Open Source CFD Toolbox
   \\    /   O peration     | Website:  https://openfoam.org
    \\  /    A nd           | Version:  7
     \\/     M anipulation  |
\*---------------------------------------------------------------------------*/
FoamFile
{
    version     2.0;
    format      ascii;
    class       volScalarField;
    location    "0.049";
    object      gradTy;
}
// * * * * * * * * * * * * * * * * * * * * * * * * * * * * * * * * * * * * * //

dimensions      [0 -1 0 1 0 0 0];

internalField   nonuniform List<scalar> 
10000
(
1.43996e-06
1.3976e-06
1.3976e-06
1.40819e-06
1.40819e-06
1.40819e-06
1.40819e-06
1.3976e-06
1.40819e-06
1.3976e-06
1.3976e-06
1.38702e-06
1.3976e-06
1.38702e-06
1.40819e-06
1.3976e-06
1.38702e-06
1.3976e-06
1.38702e-06
1.38702e-06
1.38702e-06
1.3976e-06
1.3976e-06
1.3976e-06
1.38702e-06
1.36584e-06
1.38702e-06
1.37643e-06
1.36584e-06
1.35525e-06
1.36584e-06
1.37643e-06
1.35525e-06
1.34466e-06
1.35525e-06
1.34466e-06
1.35525e-06
1.35525e-06
1.33408e-06
1.34466e-06
1.34466e-06
1.34466e-06
1.34466e-06
1.34466e-06
1.32349e-06
1.35525e-06
1.34466e-06
1.35525e-06
1.36584e-06
1.35525e-06
1.33408e-06
1.34466e-06
1.34466e-06
1.35525e-06
1.35525e-06
1.34466e-06
1.35525e-06
1.36584e-06
1.35525e-06
1.34466e-06
1.35525e-06
1.35525e-06
1.35525e-06
1.35525e-06
1.35525e-06
1.34466e-06
1.37643e-06
1.34466e-06
1.36584e-06
1.35525e-06
1.37643e-06
1.37643e-06
1.37643e-06
1.38702e-06
1.37643e-06
1.38702e-06
1.36584e-06
1.38702e-06
1.38702e-06
1.3976e-06
1.38702e-06
1.3976e-06
1.38702e-06
1.3976e-06
1.3976e-06
1.38702e-06
1.38702e-06
1.3976e-06
1.3976e-06
1.40819e-06
1.40819e-06
1.3976e-06
1.41878e-06
1.37643e-06
1.40819e-06
1.40819e-06
1.40819e-06
1.40819e-06
1.3976e-06
1.3976e-06
4.23516e-06
4.23516e-06
4.23516e-06
4.22458e-06
4.23516e-06
4.24575e-06
4.23516e-06
4.23516e-06
4.22458e-06
4.22458e-06
4.19281e-06
4.19281e-06
4.21399e-06
4.18223e-06
4.18223e-06
4.15046e-06
4.17164e-06
4.16105e-06
4.16105e-06
4.15046e-06
4.13987e-06
4.1187e-06
4.12929e-06
4.13987e-06
4.1187e-06
4.1187e-06
4.1187e-06
4.13987e-06
4.12929e-06
4.09752e-06
4.10811e-06
4.08693e-06
4.06576e-06
4.08693e-06
4.07635e-06
4.07635e-06
4.04458e-06
4.05517e-06
4.05517e-06
4.03399e-06
4.05517e-06
4.04458e-06
4.03399e-06
4.03399e-06
4.04458e-06
4.04458e-06
4.04458e-06
4.02341e-06
4.04458e-06
4.02341e-06
4.02341e-06
4.02341e-06
4.03399e-06
4.02341e-06
4.03399e-06
4.03399e-06
4.04458e-06
4.05517e-06
4.03399e-06
4.04458e-06
4.04458e-06
4.04458e-06
4.06576e-06
4.04458e-06
4.06576e-06
4.06576e-06
4.07635e-06
4.07635e-06
4.08693e-06
4.08693e-06
4.10811e-06
4.09752e-06
4.1187e-06
4.12929e-06
4.12929e-06
4.12929e-06
4.12929e-06
4.15046e-06
4.12929e-06
4.15046e-06
4.15046e-06
4.17164e-06
4.16105e-06
4.17164e-06
4.18223e-06
4.2034e-06
4.18223e-06
4.18223e-06
4.19281e-06
4.19281e-06
4.19281e-06
4.21399e-06
4.22458e-06
4.21399e-06
4.22458e-06
4.22458e-06
4.21399e-06
4.21399e-06
4.23516e-06
4.2034e-06
7.0092e-06
7.03037e-06
7.0092e-06
7.04096e-06
6.99861e-06
7.01979e-06
7.03037e-06
7.01979e-06
7.0092e-06
6.96685e-06
6.97743e-06
6.96685e-06
6.95626e-06
6.96685e-06
6.93508e-06
6.92449e-06
6.92449e-06
6.91391e-06
6.92449e-06
6.90332e-06
6.89273e-06
6.89273e-06
6.86097e-06
6.83979e-06
6.83979e-06
6.83979e-06
6.83979e-06
6.83979e-06
6.83979e-06
6.85038e-06
6.80803e-06
6.78685e-06
6.79744e-06
6.78685e-06
6.77626e-06
6.75509e-06
6.75509e-06
6.73391e-06
6.73391e-06
6.73391e-06
6.73391e-06
6.72332e-06
6.72332e-06
6.69156e-06
6.72332e-06
6.70215e-06
6.70215e-06
6.70215e-06
6.69156e-06
6.69156e-06
6.70215e-06
6.68097e-06
6.71274e-06
6.69156e-06
6.68097e-06
6.68097e-06
6.68097e-06
6.69156e-06
6.69156e-06
6.71274e-06
6.72332e-06
6.71274e-06
6.72332e-06
6.72332e-06
6.75509e-06
6.73391e-06
6.7445e-06
6.76568e-06
6.76568e-06
6.77626e-06
6.77626e-06
6.79744e-06
6.83979e-06
6.81862e-06
6.83979e-06
6.86097e-06
6.85038e-06
6.86097e-06
6.88214e-06
6.87155e-06
6.90332e-06
6.90332e-06
6.92449e-06
6.92449e-06
6.93508e-06
6.93508e-06
6.92449e-06
6.94567e-06
6.96685e-06
6.97743e-06
6.96685e-06
6.98802e-06
6.97743e-06
7.01979e-06
6.99861e-06
6.99861e-06
7.03037e-06
7.01979e-06
7.01979e-06
7.01979e-06
9.78323e-06
9.76205e-06
9.78323e-06
9.77264e-06
9.80441e-06
9.80441e-06
9.76205e-06
9.78323e-06
9.75147e-06
9.74088e-06
9.73029e-06
9.73029e-06
9.69853e-06
9.68794e-06
9.69853e-06
9.68794e-06
9.66676e-06
9.65618e-06
9.65618e-06
9.65618e-06
9.61382e-06
9.635e-06
9.61382e-06
9.58206e-06
9.59265e-06
9.5503e-06
9.5503e-06
9.51853e-06
9.48677e-06
9.47618e-06
9.49736e-06
9.48677e-06
9.47618e-06
9.45501e-06
9.43383e-06
9.41265e-06
9.41265e-06
9.40207e-06
9.38089e-06
9.39148e-06
9.38089e-06
9.39148e-06
9.3703e-06
9.3703e-06
9.34913e-06
9.33854e-06
9.34913e-06
9.32795e-06
9.33854e-06
9.32795e-06
9.33854e-06
9.3703e-06
9.33854e-06
9.33854e-06
9.34913e-06
9.33854e-06
9.35971e-06
9.34913e-06
9.38089e-06
9.3703e-06
9.3703e-06
9.3703e-06
9.38089e-06
9.41265e-06
9.40207e-06
9.41265e-06
9.43383e-06
9.44442e-06
9.44442e-06
9.45501e-06
9.47618e-06
9.49736e-06
9.48677e-06
9.50794e-06
9.53971e-06
9.5503e-06
9.57147e-06
9.59265e-06
9.58206e-06
9.62441e-06
9.61382e-06
9.635e-06
9.65618e-06
9.65618e-06
9.65618e-06
9.64559e-06
9.67735e-06
9.70912e-06
9.70912e-06
9.7197e-06
9.7197e-06
9.75147e-06
9.75147e-06
9.75147e-06
9.74088e-06
9.79382e-06
9.78323e-06
9.77264e-06
9.76205e-06
9.78323e-06
1.25043e-05
1.25043e-05
1.25149e-05
1.25043e-05
1.25149e-05
1.24937e-05
1.25043e-05
1.24726e-05
1.24726e-05
1.24514e-05
1.24302e-05
1.24196e-05
1.24196e-05
1.23879e-05
1.23879e-05
1.23667e-05
1.23667e-05
1.23667e-05
1.23032e-05
1.23137e-05
1.23032e-05
1.22714e-05
1.2282e-05
1.22714e-05
1.22608e-05
1.22608e-05
1.22079e-05
1.21867e-05
1.21867e-05
1.21337e-05
1.21232e-05
1.21337e-05
1.2102e-05
1.2102e-05
1.20702e-05
1.20596e-05
1.20385e-05
1.20385e-05
1.20173e-05
1.19961e-05
1.19855e-05
1.19855e-05
1.19643e-05
1.19643e-05
1.19432e-05
1.19538e-05
1.19326e-05
1.19538e-05
1.19538e-05
1.19749e-05
1.19432e-05
1.19643e-05
1.19432e-05
1.19326e-05
1.19432e-05
1.19643e-05
1.19855e-05
1.19643e-05
1.19855e-05
1.19749e-05
1.19961e-05
1.20279e-05
1.20385e-05
1.20385e-05
1.2049e-05
1.20702e-05
1.20808e-05
1.20914e-05
1.20914e-05
1.21337e-05
1.21337e-05
1.21337e-05
1.21549e-05
1.21867e-05
1.21973e-05
1.22079e-05
1.22502e-05
1.22608e-05
1.2282e-05
1.23032e-05
1.23032e-05
1.23137e-05
1.23349e-05
1.23455e-05
1.23667e-05
1.23667e-05
1.23984e-05
1.23984e-05
1.24196e-05
1.24302e-05
1.2462e-05
1.2462e-05
1.24831e-05
1.2462e-05
1.25149e-05
1.24937e-05
1.25043e-05
1.25255e-05
1.25149e-05
1.25043e-05
1.51937e-05
1.52042e-05
1.51937e-05
1.52042e-05
1.51619e-05
1.51725e-05
1.51725e-05
1.51407e-05
1.51407e-05
1.51195e-05
1.50984e-05
1.50878e-05
1.50878e-05
1.50984e-05
1.5056e-05
1.5056e-05
1.50137e-05
1.50031e-05
1.49607e-05
1.49501e-05
1.49713e-05
1.49395e-05
1.49078e-05
1.49184e-05
1.48654e-05
1.48443e-05
1.48125e-05
1.48125e-05
1.47701e-05
1.47701e-05
1.4749e-05
1.47172e-05
1.47172e-05
1.46748e-05
1.46537e-05
1.46431e-05
1.46325e-05
1.46113e-05
1.45901e-05
1.45901e-05
1.45796e-05
1.45478e-05
1.45372e-05
1.4516e-05
1.45266e-05
1.45266e-05
1.45266e-05
1.4516e-05
1.4516e-05
1.45266e-05
1.45054e-05
1.44949e-05
1.45054e-05
1.45372e-05
1.45478e-05
1.45584e-05
1.45372e-05
1.45584e-05
1.45478e-05
1.4569e-05
1.46007e-05
1.46219e-05
1.46219e-05
1.46431e-05
1.46431e-05
1.46643e-05
1.46854e-05
1.4696e-05
1.47278e-05
1.47172e-05
1.47278e-05
1.47595e-05
1.47807e-05
1.47807e-05
1.48019e-05
1.48231e-05
1.48548e-05
1.48972e-05
1.4929e-05
1.49395e-05
1.49607e-05
1.49819e-05
1.49819e-05
1.50137e-05
1.50137e-05
1.50454e-05
1.50454e-05
1.50878e-05
1.5109e-05
1.50878e-05
1.51195e-05
1.51195e-05
1.51407e-05
1.51513e-05
1.51619e-05
1.51619e-05
1.51725e-05
1.51937e-05
1.51937e-05
1.52042e-05
1.77877e-05
1.78089e-05
1.78195e-05
1.78089e-05
1.78195e-05
1.77771e-05
1.77453e-05
1.77559e-05
1.77453e-05
1.77453e-05
1.77242e-05
1.76924e-05
1.76712e-05
1.76712e-05
1.76606e-05
1.76289e-05
1.76077e-05
1.75759e-05
1.75971e-05
1.75442e-05
1.75442e-05
1.7523e-05
1.75018e-05
1.74701e-05
1.74383e-05
1.74065e-05
1.73854e-05
1.73642e-05
1.73112e-05
1.73006e-05
1.72795e-05
1.72583e-05
1.72265e-05
1.71948e-05
1.71948e-05
1.71524e-05
1.71418e-05
1.71207e-05
1.71207e-05
1.71101e-05
1.70677e-05
1.70677e-05
1.70677e-05
1.70677e-05
1.70677e-05
1.7036e-05
1.70254e-05
1.70148e-05
1.70148e-05
1.70042e-05
1.70148e-05
1.70042e-05
1.70148e-05
1.70148e-05
1.70254e-05
1.7036e-05
1.70465e-05
1.70571e-05
1.70783e-05
1.70783e-05
1.70995e-05
1.71101e-05
1.71312e-05
1.71524e-05
1.7163e-05
1.71842e-05
1.72054e-05
1.72159e-05
1.72583e-05
1.72477e-05
1.72901e-05
1.73112e-05
1.73218e-05
1.73536e-05
1.73642e-05
1.73959e-05
1.74277e-05
1.74489e-05
1.74806e-05
1.75124e-05
1.75336e-05
1.75442e-05
1.75653e-05
1.75971e-05
1.76183e-05
1.76183e-05
1.76606e-05
1.76606e-05
1.765e-05
1.7703e-05
1.77136e-05
1.77348e-05
1.77559e-05
1.77771e-05
1.77665e-05
1.77771e-05
1.77877e-05
1.77983e-05
1.783e-05
1.78089e-05
2.03711e-05
2.03606e-05
2.03606e-05
2.035e-05
2.03606e-05
2.03182e-05
2.0297e-05
2.03076e-05
2.02759e-05
2.02653e-05
2.02864e-05
2.02441e-05
2.02123e-05
2.01911e-05
2.01488e-05
2.01488e-05
2.0117e-05
2.00959e-05
2.00747e-05
2.00747e-05
2.00217e-05
2.00217e-05
1.99794e-05
1.99476e-05
1.99476e-05
1.98947e-05
1.98947e-05
1.98312e-05
1.98206e-05
1.97782e-05
1.97465e-05
1.97147e-05
1.96935e-05
1.96829e-05
1.96512e-05
1.96512e-05
1.96194e-05
1.95876e-05
1.9577e-05
1.95241e-05
1.95135e-05
1.95241e-05
1.95029e-05
1.95029e-05
1.94606e-05
1.945e-05
1.94394e-05
1.94712e-05
1.94394e-05
1.94288e-05
1.94606e-05
1.94606e-05
1.945e-05
1.94606e-05
1.94606e-05
1.94818e-05
1.95029e-05
1.95029e-05
1.95135e-05
1.95559e-05
1.95559e-05
1.95559e-05
1.95876e-05
1.9577e-05
1.963e-05
1.96512e-05
1.96618e-05
1.97041e-05
1.97041e-05
1.97465e-05
1.9757e-05
1.97888e-05
1.98312e-05
1.98523e-05
1.98735e-05
1.98947e-05
1.99265e-05
1.99476e-05
2.00006e-05
2.00112e-05
2.00535e-05
2.00747e-05
2.00853e-05
2.01064e-05
2.01382e-05
2.017e-05
2.01911e-05
2.02017e-05
2.02229e-05
2.02441e-05
2.02653e-05
2.02864e-05
2.0297e-05
2.03076e-05
2.03394e-05
2.03394e-05
2.03394e-05
2.035e-05
2.035e-05
2.035e-05
2.28275e-05
2.28275e-05
2.27958e-05
2.27958e-05
2.27958e-05
2.27958e-05
2.27958e-05
2.27534e-05
2.27534e-05
2.27534e-05
2.26899e-05
2.26899e-05
2.26793e-05
2.26475e-05
2.26158e-05
2.25946e-05
2.25734e-05
2.25311e-05
2.25205e-05
2.24781e-05
2.2457e-05
2.24252e-05
2.2404e-05
2.23617e-05
2.23299e-05
2.23193e-05
2.22876e-05
2.22558e-05
2.2224e-05
2.21923e-05
2.21605e-05
2.21287e-05
2.20864e-05
2.20546e-05
2.20334e-05
2.20017e-05
2.20017e-05
2.19593e-05
2.19487e-05
2.19276e-05
2.19064e-05
2.18746e-05
2.18535e-05
2.18535e-05
2.18217e-05
2.18323e-05
2.18323e-05
2.18005e-05
2.17899e-05
2.18111e-05
2.18111e-05
2.18217e-05
2.18217e-05
2.18323e-05
2.18429e-05
2.18429e-05
2.1864e-05
2.1864e-05
2.18852e-05
2.1917e-05
2.1917e-05
2.19382e-05
2.19382e-05
2.19911e-05
2.19911e-05
2.20229e-05
2.20546e-05
2.20758e-05
2.21076e-05
2.21393e-05
2.21817e-05
2.22134e-05
2.2224e-05
2.22558e-05
2.22876e-05
2.23193e-05
2.23405e-05
2.23828e-05
2.23934e-05
2.24464e-05
2.24675e-05
2.25099e-05
2.25523e-05
2.25734e-05
2.25946e-05
2.26264e-05
2.26581e-05
2.26793e-05
2.26899e-05
2.27111e-05
2.27217e-05
2.27428e-05
2.2764e-05
2.27958e-05
2.27958e-05
2.28064e-05
2.28064e-05
2.27852e-05
2.27852e-05
2.2817e-05
2.51992e-05
2.51992e-05
2.51886e-05
2.51781e-05
2.51675e-05
2.51675e-05
2.51675e-05
2.51251e-05
2.51357e-05
2.50934e-05
2.50934e-05
2.50616e-05
2.5051e-05
2.50086e-05
2.49875e-05
2.49557e-05
2.49345e-05
2.49028e-05
2.48604e-05
2.48498e-05
2.47969e-05
2.47545e-05
2.47122e-05
2.47122e-05
2.46804e-05
2.46275e-05
2.45957e-05
2.4564e-05
2.45428e-05
2.45004e-05
2.44687e-05
2.44157e-05
2.44051e-05
2.43628e-05
2.43416e-05
2.43098e-05
2.42781e-05
2.42675e-05
2.42357e-05
2.4204e-05
2.41722e-05
2.4151e-05
2.41404e-05
2.41087e-05
2.41193e-05
2.41087e-05
2.41087e-05
2.40875e-05
2.40875e-05
2.40875e-05
2.40769e-05
2.40769e-05
2.40875e-05
2.40769e-05
2.41087e-05
2.41193e-05
2.41087e-05
2.41299e-05
2.41616e-05
2.41722e-05
2.41934e-05
2.42357e-05
2.42463e-05
2.42993e-05
2.43098e-05
2.4331e-05
2.43628e-05
2.43945e-05
2.44157e-05
2.44793e-05
2.4511e-05
2.45428e-05
2.45851e-05
2.46063e-05
2.46275e-05
2.46487e-05
2.46698e-05
2.47016e-05
2.47545e-05
2.47651e-05
2.48181e-05
2.48604e-05
2.48922e-05
2.49028e-05
2.49557e-05
2.49981e-05
2.50086e-05
2.50298e-05
2.50616e-05
2.50722e-05
2.50934e-05
2.51145e-05
2.51463e-05
2.51357e-05
2.51463e-05
2.51781e-05
2.51886e-05
2.51992e-05
2.52098e-05
2.52098e-05
2.74439e-05
2.7465e-05
2.74756e-05
2.74439e-05
2.74227e-05
2.74333e-05
2.74227e-05
2.74121e-05
2.73698e-05
2.73698e-05
2.73698e-05
2.73486e-05
2.73062e-05
2.7285e-05
2.72533e-05
2.72109e-05
2.71686e-05
2.71368e-05
2.71051e-05
2.70627e-05
2.70309e-05
2.6978e-05
2.69674e-05
2.69251e-05
2.68827e-05
2.68404e-05
2.68298e-05
2.67874e-05
2.67451e-05
2.67027e-05
2.66392e-05
2.66286e-05
2.65968e-05
2.65545e-05
2.65121e-05
2.65121e-05
2.64592e-05
2.6438e-05
2.63851e-05
2.63745e-05
2.63533e-05
2.63533e-05
2.63321e-05
2.63215e-05
2.63004e-05
2.62686e-05
2.62792e-05
2.62898e-05
2.62686e-05
2.6258e-05
2.6258e-05
2.62474e-05
2.6258e-05
2.62792e-05
2.62792e-05
2.62898e-05
2.63215e-05
2.63427e-05
2.63533e-05
2.63745e-05
2.63957e-05
2.64274e-05
2.64592e-05
2.64698e-05
2.65227e-05
2.65439e-05
2.65439e-05
2.65757e-05
2.66286e-05
2.66815e-05
2.67133e-05
2.67451e-05
2.67874e-05
2.68298e-05
2.68615e-05
2.69145e-05
2.69251e-05
2.69674e-05
2.69992e-05
2.70521e-05
2.70627e-05
2.71156e-05
2.71262e-05
2.71686e-05
2.72109e-05
2.72427e-05
2.7285e-05
2.72956e-05
2.73274e-05
2.73486e-05
2.73698e-05
2.74015e-05
2.74015e-05
2.74121e-05
2.74227e-05
2.74439e-05
2.74439e-05
2.74756e-05
2.74968e-05
2.74862e-05
2.9625e-05
2.96038e-05
2.96038e-05
2.96144e-05
2.95932e-05
2.96038e-05
2.95826e-05
2.95826e-05
2.9572e-05
2.95403e-05
2.95085e-05
2.94979e-05
2.94662e-05
2.9445e-05
2.94238e-05
2.93709e-05
2.93497e-05
2.92968e-05
2.9265e-05
2.9212e-05
2.91803e-05
2.91379e-05
2.91062e-05
2.90638e-05
2.90109e-05
2.89791e-05
2.89474e-05
2.88944e-05
2.88309e-05
2.88097e-05
2.87674e-05
2.8725e-05
2.87038e-05
2.86509e-05
2.86297e-05
2.85768e-05
2.85662e-05
2.85238e-05
2.85027e-05
2.84603e-05
2.84709e-05
2.84285e-05
2.8418e-05
2.83756e-05
2.8365e-05
2.83544e-05
2.83333e-05
2.83438e-05
2.83438e-05
2.83333e-05
2.83227e-05
2.83544e-05
2.83544e-05
2.8365e-05
2.83544e-05
2.83968e-05
2.84074e-05
2.8418e-05
2.84497e-05
2.84603e-05
2.84921e-05
2.85132e-05
2.8545e-05
2.85874e-05
2.86085e-05
2.86085e-05
2.86509e-05
2.87038e-05
2.87568e-05
2.87568e-05
2.88203e-05
2.88626e-05
2.8905e-05
2.89368e-05
2.89897e-05
2.90215e-05
2.90956e-05
2.90956e-05
2.91379e-05
2.91697e-05
2.92332e-05
2.92332e-05
2.92862e-05
2.93391e-05
2.93709e-05
2.9392e-05
2.94238e-05
2.94556e-05
2.94873e-05
2.95085e-05
2.95297e-05
2.95614e-05
2.95509e-05
2.95932e-05
2.96038e-05
2.96144e-05
2.96356e-05
2.96462e-05
2.96673e-05
2.96779e-05
3.17002e-05
3.16684e-05
3.1679e-05
3.1679e-05
3.16473e-05
3.16473e-05
3.16367e-05
3.16261e-05
3.15943e-05
3.15837e-05
3.15414e-05
3.15096e-05
3.14884e-05
3.14567e-05
3.14355e-05
3.14143e-05
3.13614e-05
3.1319e-05
3.12661e-05
3.12238e-05
3.11602e-05
3.1139e-05
3.10967e-05
3.10438e-05
3.10014e-05
3.09908e-05
3.09273e-05
3.09061e-05
3.0832e-05
3.08108e-05
3.07579e-05
3.07155e-05
3.06626e-05
3.0652e-05
3.06097e-05
3.05779e-05
3.05355e-05
3.05144e-05
3.0472e-05
3.04614e-05
3.04191e-05
3.03979e-05
3.03661e-05
3.03555e-05
3.03344e-05
3.03344e-05
3.03238e-05
3.0292e-05
3.03026e-05
3.03132e-05
3.03132e-05
3.03026e-05
3.03344e-05
3.03344e-05
3.03344e-05
3.0345e-05
3.03555e-05
3.03767e-05
3.03979e-05
3.04191e-05
3.04402e-05
3.04826e-05
3.05249e-05
3.05461e-05
3.05673e-05
3.06308e-05
3.0652e-05
3.07049e-05
3.07155e-05
3.07896e-05
3.08108e-05
3.08426e-05
3.08849e-05
3.09379e-05
3.09908e-05
3.10332e-05
3.10755e-05
3.11285e-05
3.11708e-05
3.12026e-05
3.12343e-05
3.12873e-05
3.13296e-05
3.13614e-05
3.13826e-05
3.14461e-05
3.14567e-05
3.15096e-05
3.15202e-05
3.1552e-05
3.15837e-05
3.15732e-05
3.15943e-05
3.16049e-05
3.16367e-05
3.16579e-05
3.16896e-05
3.17002e-05
3.17002e-05
3.17108e-05
3.36272e-05
3.36166e-05
3.36166e-05
3.36166e-05
3.3606e-05
3.35637e-05
3.35531e-05
3.35425e-05
3.35107e-05
3.3479e-05
3.34578e-05
3.34366e-05
3.33837e-05
3.33625e-05
3.33413e-05
3.33202e-05
3.32566e-05
3.32249e-05
3.31508e-05
3.3119e-05
3.3066e-05
3.30131e-05
3.29708e-05
3.2939e-05
3.29072e-05
3.28649e-05
3.28119e-05
3.27484e-05
3.27272e-05
3.26743e-05
3.26319e-05
3.25896e-05
3.25367e-05
3.25049e-05
3.24625e-05
3.24308e-05
3.24096e-05
3.23884e-05
3.23567e-05
3.23143e-05
3.2272e-05
3.22614e-05
3.22296e-05
3.22084e-05
3.21873e-05
3.21661e-05
3.21661e-05
3.21449e-05
3.21449e-05
3.21237e-05
3.21449e-05
3.21343e-05
3.21449e-05
3.21661e-05
3.21873e-05
3.21767e-05
3.22084e-05
3.22296e-05
3.22402e-05
3.2272e-05
3.23037e-05
3.23355e-05
3.23884e-05
3.24096e-05
3.24414e-05
3.24837e-05
3.25261e-05
3.25684e-05
3.26108e-05
3.26637e-05
3.26955e-05
3.27484e-05
3.2759e-05
3.28225e-05
3.28755e-05
3.29284e-05
3.29602e-05
3.30237e-05
3.30555e-05
3.31084e-05
3.31402e-05
3.32037e-05
3.32566e-05
3.32884e-05
3.33202e-05
3.33413e-05
3.33731e-05
3.34049e-05
3.34578e-05
3.34896e-05
3.35213e-05
3.35319e-05
3.35425e-05
3.35531e-05
3.35849e-05
3.35849e-05
3.3606e-05
3.36272e-05
3.36484e-05
3.36272e-05
3.5406e-05
3.54272e-05
3.5406e-05
3.5406e-05
3.5406e-05
3.53742e-05
3.5353e-05
3.53107e-05
3.52895e-05
3.52789e-05
3.52683e-05
3.52366e-05
3.52048e-05
3.51413e-05
3.51095e-05
3.50672e-05
3.50248e-05
3.49825e-05
3.49189e-05
3.48872e-05
3.48342e-05
3.48025e-05
3.47601e-05
3.47072e-05
3.46542e-05
3.45907e-05
3.45378e-05
3.44848e-05
3.44742e-05
3.43789e-05
3.43578e-05
3.4326e-05
3.42731e-05
3.42307e-05
3.4199e-05
3.41566e-05
3.41248e-05
3.40931e-05
3.40613e-05
3.40084e-05
3.39872e-05
3.3966e-05
3.39554e-05
3.39237e-05
3.39237e-05
3.38813e-05
3.38496e-05
3.38496e-05
3.38601e-05
3.38601e-05
3.38707e-05
3.38707e-05
3.38601e-05
3.38813e-05
3.38707e-05
3.38919e-05
3.39025e-05
3.39448e-05
3.39554e-05
3.39872e-05
3.40401e-05
3.40507e-05
3.40825e-05
3.41248e-05
3.41778e-05
3.42307e-05
3.42731e-05
3.43048e-05
3.43472e-05
3.43895e-05
3.44319e-05
3.44742e-05
3.45378e-05
3.45695e-05
3.46331e-05
3.4686e-05
3.47389e-05
3.47707e-05
3.48131e-05
3.4866e-05
3.49189e-05
3.49401e-05
3.50036e-05
3.50566e-05
3.51095e-05
3.51095e-05
3.51625e-05
3.51836e-05
3.52366e-05
3.52789e-05
3.52789e-05
3.53001e-05
3.53319e-05
3.5353e-05
3.53742e-05
3.5406e-05
3.5406e-05
3.54166e-05
3.54166e-05
3.54166e-05
3.70577e-05
3.70577e-05
3.70577e-05
3.70365e-05
3.70365e-05
3.70153e-05
3.69942e-05
3.6973e-05
3.69624e-05
3.69412e-05
3.68989e-05
3.68671e-05
3.68459e-05
3.68036e-05
3.67401e-05
3.66977e-05
3.66765e-05
3.66236e-05
3.65706e-05
3.65177e-05
3.64965e-05
3.64436e-05
3.63907e-05
3.63483e-05
3.62848e-05
3.62212e-05
3.61471e-05
3.61048e-05
3.60518e-05
3.59883e-05
3.59671e-05
3.59354e-05
3.58718e-05
3.58295e-05
3.57766e-05
3.57554e-05
3.5713e-05
3.56707e-05
3.56495e-05
3.56177e-05
3.55754e-05
3.55436e-05
3.55224e-05
3.55119e-05
3.54801e-05
3.54589e-05
3.54377e-05
3.54589e-05
3.54377e-05
3.54377e-05
3.54483e-05
3.54589e-05
3.54589e-05
3.54377e-05
3.54589e-05
3.54695e-05
3.55013e-05
3.55224e-05
3.55542e-05
3.55966e-05
3.56071e-05
3.56601e-05
3.56707e-05
3.57236e-05
3.5766e-05
3.58401e-05
3.5893e-05
3.59036e-05
3.59671e-05
3.60201e-05
3.60518e-05
3.60836e-05
3.61471e-05
3.62107e-05
3.6253e-05
3.63165e-05
3.63483e-05
3.64118e-05
3.64542e-05
3.64965e-05
3.65495e-05
3.66024e-05
3.66342e-05
3.66554e-05
3.67083e-05
3.67824e-05
3.68142e-05
3.68565e-05
3.68671e-05
3.69095e-05
3.69306e-05
3.69624e-05
3.69942e-05
3.70153e-05
3.70365e-05
3.70365e-05
3.70577e-05
3.70683e-05
3.70683e-05
3.70789e-05
3.854e-05
3.854e-05
3.85506e-05
3.854e-05
3.85294e-05
3.85188e-05
3.84765e-05
3.84765e-05
3.84553e-05
3.84235e-05
3.83812e-05
3.836e-05
3.83177e-05
3.82965e-05
3.82329e-05
3.818e-05
3.81377e-05
3.81059e-05
3.80635e-05
3.80106e-05
3.79577e-05
3.79047e-05
3.78624e-05
3.77988e-05
3.77565e-05
3.76824e-05
3.76294e-05
3.75765e-05
3.75236e-05
3.74812e-05
3.74283e-05
3.73647e-05
3.73647e-05
3.72906e-05
3.72589e-05
3.72059e-05
3.71636e-05
3.71106e-05
3.70895e-05
3.70789e-05
3.70365e-05
3.69942e-05
3.69624e-05
3.69412e-05
3.692e-05
3.69095e-05
3.68883e-05
3.68777e-05
3.68671e-05
3.68565e-05
3.68671e-05
3.68777e-05
3.68883e-05
3.68777e-05
3.68989e-05
3.692e-05
3.69412e-05
3.69624e-05
3.69942e-05
3.70153e-05
3.70471e-05
3.70895e-05
3.71424e-05
3.71636e-05
3.72271e-05
3.72589e-05
3.73118e-05
3.73753e-05
3.74177e-05
3.74283e-05
3.74918e-05
3.75447e-05
3.76083e-05
3.76506e-05
3.77036e-05
3.77353e-05
3.77883e-05
3.78412e-05
3.78941e-05
3.79577e-05
3.8e-05
3.80635e-05
3.81165e-05
3.81694e-05
3.82118e-05
3.82541e-05
3.82965e-05
3.83388e-05
3.836e-05
3.84024e-05
3.84341e-05
3.84659e-05
3.85188e-05
3.854e-05
3.854e-05
3.854e-05
3.85718e-05
3.85506e-05
3.85612e-05
3.85929e-05
3.99164e-05
3.99376e-05
3.99058e-05
3.98847e-05
3.98635e-05
3.98529e-05
3.98741e-05
3.98529e-05
3.98105e-05
3.97788e-05
3.97576e-05
3.97047e-05
3.96729e-05
3.96411e-05
3.95988e-05
3.95353e-05
3.94823e-05
3.94506e-05
3.94082e-05
3.93341e-05
3.92917e-05
3.92282e-05
3.91964e-05
3.91223e-05
3.90588e-05
3.90059e-05
3.89635e-05
3.89e-05
3.8847e-05
3.87941e-05
3.87518e-05
3.86988e-05
3.86459e-05
3.86247e-05
3.85612e-05
3.85188e-05
3.84659e-05
3.84553e-05
3.83918e-05
3.83706e-05
3.836e-05
3.83071e-05
3.82753e-05
3.82541e-05
3.82329e-05
3.82224e-05
3.82012e-05
3.81906e-05
3.81694e-05
3.818e-05
3.81694e-05
3.81588e-05
3.818e-05
3.81906e-05
3.82118e-05
3.82329e-05
3.82435e-05
3.82753e-05
3.83071e-05
3.83388e-05
3.83812e-05
3.83918e-05
3.84447e-05
3.84871e-05
3.85294e-05
3.85612e-05
3.86247e-05
3.86671e-05
3.86776e-05
3.87412e-05
3.88153e-05
3.8847e-05
3.89106e-05
3.89741e-05
3.90059e-05
3.90694e-05
3.91329e-05
3.91753e-05
3.92282e-05
3.92917e-05
3.93553e-05
3.93976e-05
3.94717e-05
3.95353e-05
3.95776e-05
3.95988e-05
3.96306e-05
3.96729e-05
3.9747e-05
3.97576e-05
3.97894e-05
3.98317e-05
3.98423e-05
3.98953e-05
3.98953e-05
3.9927e-05
3.9927e-05
3.9927e-05
3.9927e-05
3.99482e-05
4.1134e-05
4.11129e-05
4.11129e-05
4.11023e-05
4.10917e-05
4.10493e-05
4.10387e-05
4.10282e-05
4.1007e-05
4.09752e-05
4.0954e-05
4.09223e-05
4.08693e-05
4.08058e-05
4.07635e-05
4.07211e-05
4.06893e-05
4.0647e-05
4.05729e-05
4.05199e-05
4.04882e-05
4.04141e-05
4.03399e-05
4.0287e-05
4.02235e-05
4.01811e-05
4.01282e-05
4.00858e-05
4.00011e-05
3.99588e-05
3.99164e-05
3.98635e-05
3.98317e-05
3.97576e-05
3.97258e-05
3.96623e-05
3.962e-05
3.95882e-05
3.95459e-05
3.95035e-05
3.94823e-05
3.94506e-05
3.94294e-05
3.9387e-05
3.93764e-05
3.93659e-05
3.93659e-05
3.93447e-05
3.93553e-05
3.93553e-05
3.93235e-05
3.93341e-05
3.93341e-05
3.93659e-05
3.93659e-05
3.9387e-05
3.94294e-05
3.94506e-05
3.94611e-05
3.94929e-05
3.95141e-05
3.95564e-05
3.95882e-05
3.96517e-05
3.96835e-05
3.97153e-05
3.97576e-05
3.98e-05
3.98635e-05
3.99164e-05
3.99588e-05
4.00117e-05
4.00541e-05
4.01282e-05
4.01811e-05
4.02447e-05
4.03082e-05
4.03505e-05
4.04246e-05
4.04988e-05
4.05517e-05
4.06046e-05
4.06258e-05
4.06788e-05
4.07423e-05
4.07846e-05
4.0827e-05
4.08799e-05
4.09117e-05
4.0954e-05
4.09858e-05
4.10176e-05
4.10282e-05
4.10493e-05
4.10917e-05
4.11129e-05
4.11234e-05
4.1134e-05
4.11552e-05
4.11446e-05
4.21611e-05
4.21505e-05
4.21399e-05
4.21399e-05
4.21187e-05
4.21293e-05
4.20764e-05
4.20552e-05
4.2034e-05
4.20128e-05
4.19599e-05
4.19175e-05
4.18858e-05
4.18434e-05
4.17905e-05
4.17587e-05
4.16952e-05
4.16317e-05
4.15999e-05
4.15576e-05
4.14834e-05
4.14411e-05
4.13564e-05
4.12929e-05
4.12505e-05
4.1187e-05
4.11234e-05
4.10917e-05
4.10282e-05
4.09858e-05
4.09117e-05
4.08588e-05
4.07952e-05
4.07635e-05
4.07317e-05
4.06682e-05
4.06364e-05
4.05729e-05
4.05411e-05
4.04882e-05
4.04564e-05
4.04564e-05
4.04352e-05
4.04141e-05
4.03717e-05
4.03611e-05
4.03505e-05
4.03399e-05
4.03399e-05
4.03188e-05
4.03294e-05
4.03505e-05
4.03505e-05
4.03505e-05
4.03717e-05
4.04141e-05
4.04141e-05
4.04352e-05
4.04564e-05
4.04882e-05
4.05094e-05
4.05623e-05
4.06046e-05
4.06576e-05
4.06893e-05
4.07317e-05
4.07635e-05
4.08164e-05
4.08693e-05
4.09329e-05
4.09646e-05
4.10387e-05
4.11023e-05
4.11658e-05
4.12293e-05
4.12717e-05
4.13246e-05
4.13881e-05
4.14623e-05
4.1494e-05
4.15681e-05
4.16317e-05
4.1674e-05
4.17164e-05
4.17481e-05
4.18223e-05
4.18646e-05
4.19175e-05
4.19493e-05
4.19811e-05
4.20234e-05
4.20446e-05
4.20764e-05
4.20975e-05
4.21187e-05
4.21505e-05
4.21611e-05
4.21822e-05
4.21822e-05
4.21822e-05
4.30399e-05
4.30293e-05
4.30081e-05
4.29975e-05
4.29763e-05
4.29552e-05
4.29446e-05
4.29128e-05
4.29128e-05
4.28599e-05
4.28281e-05
4.27858e-05
4.27434e-05
4.26693e-05
4.26587e-05
4.25952e-05
4.25422e-05
4.24681e-05
4.24575e-05
4.24152e-05
4.23411e-05
4.22669e-05
4.2214e-05
4.21505e-05
4.20869e-05
4.2034e-05
4.19599e-05
4.1907e-05
4.18752e-05
4.18223e-05
4.17587e-05
4.16952e-05
4.16634e-05
4.16211e-05
4.15681e-05
4.15152e-05
4.14729e-05
4.14093e-05
4.1367e-05
4.13458e-05
4.13034e-05
4.12611e-05
4.12717e-05
4.12293e-05
4.12293e-05
4.11976e-05
4.1187e-05
4.11764e-05
4.11764e-05
4.11552e-05
4.11658e-05
4.11658e-05
4.11764e-05
4.11976e-05
4.12082e-05
4.11976e-05
4.12187e-05
4.12505e-05
4.12929e-05
4.13034e-05
4.13458e-05
4.13881e-05
4.14411e-05
4.14623e-05
4.15152e-05
4.1547e-05
4.15893e-05
4.16528e-05
4.17164e-05
4.17481e-05
4.18223e-05
4.18858e-05
4.19387e-05
4.19811e-05
4.20552e-05
4.21081e-05
4.21717e-05
4.22458e-05
4.22775e-05
4.23411e-05
4.24152e-05
4.24575e-05
4.25105e-05
4.2574e-05
4.26058e-05
4.26587e-05
4.27116e-05
4.27752e-05
4.28069e-05
4.28387e-05
4.28705e-05
4.29022e-05
4.29446e-05
4.29657e-05
4.29975e-05
4.30081e-05
4.30187e-05
4.30293e-05
4.30504e-05
4.30399e-05
4.37069e-05
4.37175e-05
4.36963e-05
4.36857e-05
4.36645e-05
4.36645e-05
4.3654e-05
4.36222e-05
4.35587e-05
4.35269e-05
4.35057e-05
4.3474e-05
4.3421e-05
4.33893e-05
4.33257e-05
4.33151e-05
4.3241e-05
4.32093e-05
4.31246e-05
4.30716e-05
4.30399e-05
4.29657e-05
4.29128e-05
4.28387e-05
4.2754e-05
4.27222e-05
4.26693e-05
4.25952e-05
4.25422e-05
4.24999e-05
4.24258e-05
4.23834e-05
4.23199e-05
4.22775e-05
4.22246e-05
4.21928e-05
4.21293e-05
4.20975e-05
4.20446e-05
4.20128e-05
4.19705e-05
4.19705e-05
4.1907e-05
4.19281e-05
4.18858e-05
4.18646e-05
4.18646e-05
4.18328e-05
4.18328e-05
4.1854e-05
4.18328e-05
4.18328e-05
4.1854e-05
4.1854e-05
4.18752e-05
4.18752e-05
4.1907e-05
4.19387e-05
4.19811e-05
4.20128e-05
4.20446e-05
4.20869e-05
4.21081e-05
4.21399e-05
4.21928e-05
4.22352e-05
4.22775e-05
4.23411e-05
4.23834e-05
4.24364e-05
4.24999e-05
4.25634e-05
4.26058e-05
4.26799e-05
4.27328e-05
4.28069e-05
4.28705e-05
4.29446e-05
4.29975e-05
4.3061e-05
4.31034e-05
4.31563e-05
4.32199e-05
4.32516e-05
4.33257e-05
4.33681e-05
4.3421e-05
4.34422e-05
4.34951e-05
4.35375e-05
4.35904e-05
4.36222e-05
4.3654e-05
4.36751e-05
4.37069e-05
4.37069e-05
4.37069e-05
4.37281e-05
4.37175e-05
4.37387e-05
4.42575e-05
4.42363e-05
4.42469e-05
4.42257e-05
4.42257e-05
4.41939e-05
4.41622e-05
4.4141e-05
4.40987e-05
4.40669e-05
4.40457e-05
4.39928e-05
4.39504e-05
4.39292e-05
4.38869e-05
4.38128e-05
4.3781e-05
4.37281e-05
4.36645e-05
4.3601e-05
4.35481e-05
4.34846e-05
4.34104e-05
4.33469e-05
4.33151e-05
4.3241e-05
4.31775e-05
4.3114e-05
4.3061e-05
4.30081e-05
4.29446e-05
4.28916e-05
4.28387e-05
4.27752e-05
4.27434e-05
4.2701e-05
4.26481e-05
4.26058e-05
4.25634e-05
4.25211e-05
4.25105e-05
4.24681e-05
4.24575e-05
4.24152e-05
4.24152e-05
4.2394e-05
4.23728e-05
4.23622e-05
4.23411e-05
4.23199e-05
4.23305e-05
4.23411e-05
4.23516e-05
4.23728e-05
4.23728e-05
4.24046e-05
4.24046e-05
4.24469e-05
4.24575e-05
4.25105e-05
4.25528e-05
4.2574e-05
4.26058e-05
4.26587e-05
4.26799e-05
4.27328e-05
4.28175e-05
4.28387e-05
4.29022e-05
4.29657e-05
4.30187e-05
4.30822e-05
4.31563e-05
4.32093e-05
4.32834e-05
4.33575e-05
4.33893e-05
4.34316e-05
4.35269e-05
4.35798e-05
4.36222e-05
4.36857e-05
4.37387e-05
4.37916e-05
4.38445e-05
4.38869e-05
4.39504e-05
4.39822e-05
4.40245e-05
4.40775e-05
4.41304e-05
4.41622e-05
4.42045e-05
4.42151e-05
4.42151e-05
4.42257e-05
4.42469e-05
4.42681e-05
4.42681e-05
4.42681e-05
4.45963e-05
4.46069e-05
4.46069e-05
4.45963e-05
4.45751e-05
4.45433e-05
4.45222e-05
4.44904e-05
4.44692e-05
4.44269e-05
4.43845e-05
4.4321e-05
4.42998e-05
4.42575e-05
4.42045e-05
4.41622e-05
4.41198e-05
4.40775e-05
4.40245e-05
4.39504e-05
4.38869e-05
4.38551e-05
4.37704e-05
4.37175e-05
4.3654e-05
4.35904e-05
4.35163e-05
4.3474e-05
4.33999e-05
4.33363e-05
4.32834e-05
4.32304e-05
4.31775e-05
4.31457e-05
4.30928e-05
4.30293e-05
4.29869e-05
4.29234e-05
4.28916e-05
4.28705e-05
4.28281e-05
4.27752e-05
4.2754e-05
4.27328e-05
4.27222e-05
4.27222e-05
4.2701e-05
4.26905e-05
4.26799e-05
4.26799e-05
4.26905e-05
4.26799e-05
4.26905e-05
4.2701e-05
4.27116e-05
4.27222e-05
4.27646e-05
4.27646e-05
4.28069e-05
4.28387e-05
4.2881e-05
4.29022e-05
4.29446e-05
4.29869e-05
4.30399e-05
4.31034e-05
4.31563e-05
4.31987e-05
4.32622e-05
4.33257e-05
4.33787e-05
4.34316e-05
4.35269e-05
4.35481e-05
4.36222e-05
4.36857e-05
4.37493e-05
4.38234e-05
4.38869e-05
4.39398e-05
4.39928e-05
4.40351e-05
4.40881e-05
4.4141e-05
4.41622e-05
4.42363e-05
4.42786e-05
4.43528e-05
4.43951e-05
4.44269e-05
4.44692e-05
4.45116e-05
4.45222e-05
4.45539e-05
4.45645e-05
4.45645e-05
4.46069e-05
4.46175e-05
4.46386e-05
4.46175e-05
4.47975e-05
4.47657e-05
4.47763e-05
4.47551e-05
4.47233e-05
4.47128e-05
4.4681e-05
4.46598e-05
4.4628e-05
4.45963e-05
4.45645e-05
4.45433e-05
4.44904e-05
4.44586e-05
4.43951e-05
4.43528e-05
4.4321e-05
4.42469e-05
4.41939e-05
4.4141e-05
4.40457e-05
4.40034e-05
4.39504e-05
4.38869e-05
4.3834e-05
4.37598e-05
4.37069e-05
4.36434e-05
4.35693e-05
4.35057e-05
4.3474e-05
4.33999e-05
4.33575e-05
4.3294e-05
4.3241e-05
4.31881e-05
4.31563e-05
4.3114e-05
4.30822e-05
4.30399e-05
4.29975e-05
4.29763e-05
4.29552e-05
4.2934e-05
4.29128e-05
4.28916e-05
4.28916e-05
4.28493e-05
4.28387e-05
4.28493e-05
4.28493e-05
4.28281e-05
4.28493e-05
4.28705e-05
4.28916e-05
4.29128e-05
4.29234e-05
4.29446e-05
4.29763e-05
4.29975e-05
4.30293e-05
4.3061e-05
4.3114e-05
4.31669e-05
4.32093e-05