/*--------------------------------*- C++ -*----------------------------------*\
  =========                 |
  \\      /  F ield         | OpenFOAM: The Open Source CFD Toolbox
   \\    /   O peration     | Website:  https://openfoam.org
    \\  /    A nd           | Version:  7
     \\/     M anipulation  |
\*---------------------------------------------------------------------------*/
FoamFile
{
    version     2.0;
    format      ascii;
    class       volScalarField;
    location    "0.044";
    object      gradTy;
}
// * * * * * * * * * * * * * * * * * * * * * * * * * * * * * * * * * * * * * //

dimensions      [0 -1 0 1 0 0 0];

internalField   nonuniform List<scalar> 
10000
(
1.03444e-05
1.03338e-05
1.03338e-05
1.03338e-05
1.0302e-05
1.0302e-05
1.02491e-05
1.02491e-05
1.02385e-05
1.01962e-05
1.01856e-05
1.0122e-05
1.01009e-05
1.00585e-05
1.00268e-05
9.9844e-06
9.93146e-06
9.8997e-06
9.83617e-06
9.78323e-06
9.75147e-06
9.69853e-06
9.65618e-06
9.60324e-06
9.52912e-06
9.46559e-06
9.41265e-06
9.3703e-06
9.31736e-06
9.24325e-06
9.17972e-06
9.15854e-06
9.12678e-06
9.06325e-06
8.98914e-06
8.95737e-06
8.91502e-06
8.87267e-06
8.83032e-06
8.80914e-06
8.78797e-06
8.74562e-06
8.71385e-06
8.69268e-06
8.68209e-06
8.66091e-06
8.65032e-06
8.65032e-06
8.65032e-06
8.62915e-06
8.62915e-06
8.61856e-06
8.63974e-06
8.66091e-06
8.6715e-06
8.68209e-06
8.70326e-06
8.72444e-06
8.7562e-06
8.76679e-06
8.80914e-06
8.85149e-06
8.88326e-06
8.91502e-06
8.97855e-06
9.01031e-06
9.05266e-06
9.1056e-06
9.13737e-06
9.2009e-06
9.25383e-06
9.30677e-06
9.3703e-06
9.40207e-06
9.46559e-06
9.51853e-06
9.57147e-06
9.62441e-06
9.67735e-06
9.74088e-06
9.78323e-06
9.83617e-06
9.87852e-06
9.93146e-06
9.96323e-06
1.00056e-05
1.00585e-05
1.01115e-05
1.0122e-05
1.0175e-05
1.02067e-05
1.02491e-05
1.02703e-05
1.02809e-05
1.03126e-05
1.03232e-05
1.03338e-05
1.03338e-05
1.03444e-05
1.03656e-05
3.1012e-05
3.1012e-05
3.10014e-05
3.09696e-05
3.09167e-05
3.08849e-05
3.08108e-05
3.07579e-05
3.06626e-05
3.05885e-05
3.04826e-05
3.03767e-05
3.02391e-05
3.01544e-05
3.00273e-05
2.98897e-05
2.97626e-05
2.9625e-05
2.94767e-05
2.93285e-05
2.91697e-05
2.90109e-05
2.88626e-05
2.86827e-05
2.85027e-05
2.8365e-05
2.81744e-05
2.80262e-05
2.78886e-05
2.77192e-05
2.75709e-05
2.74015e-05
2.72533e-05
2.71262e-05
2.69674e-05
2.68509e-05
2.67133e-05
2.66074e-05
2.6491e-05
2.63957e-05
2.63321e-05
2.62368e-05
2.61204e-05
2.60674e-05
2.60251e-05
2.59616e-05
2.59192e-05
2.58874e-05
2.58769e-05
2.58451e-05
2.58557e-05
2.58451e-05
2.58663e-05
2.5898e-05
2.59404e-05
2.59827e-05
2.60463e-05
2.61098e-05
2.62051e-05
2.62792e-05
2.63851e-05
2.65015e-05
2.66074e-05
2.67239e-05
2.68509e-05
2.70098e-05
2.71368e-05
2.72745e-05
2.74121e-05
2.75603e-05
2.7698e-05
2.78568e-05
2.8005e-05
2.81744e-05
2.83544e-05
2.85132e-05
2.86932e-05
2.88309e-05
2.90003e-05
2.91697e-05
2.93285e-05
2.9445e-05
2.96144e-05
2.9752e-05
2.98685e-05
3.00167e-05
3.01544e-05
3.02391e-05
3.03661e-05
3.0472e-05
3.05885e-05
3.06626e-05
3.07261e-05
3.08002e-05
3.08638e-05
3.09273e-05
3.09379e-05
3.09908e-05
3.10226e-05
3.10014e-05
5.15631e-05
5.15631e-05
5.15208e-05
5.14678e-05
5.14043e-05
5.1309e-05
5.12349e-05
5.10867e-05
5.09702e-05
5.08114e-05
5.06632e-05
5.04832e-05
5.02926e-05
5.0102e-05
4.98902e-05
4.96785e-05
4.94561e-05
4.92232e-05
4.90009e-05
4.87573e-05
4.84609e-05
4.82068e-05
4.79421e-05
4.76668e-05
4.73915e-05
4.71374e-05
4.68833e-05
4.6608e-05
4.63221e-05
4.6068e-05
4.58139e-05
4.55598e-05
4.53057e-05
4.50622e-05
4.48504e-05
4.46386e-05
4.44481e-05
4.42257e-05
4.40563e-05
4.38869e-05
4.37175e-05
4.35904e-05
4.34528e-05
4.33363e-05
4.32304e-05
4.31563e-05
4.30716e-05
4.30187e-05
4.29657e-05
4.29657e-05
4.29446e-05
4.29657e-05
4.30081e-05
4.30504e-05
4.31246e-05
4.31881e-05
4.3294e-05
4.34104e-05
4.35269e-05
4.37069e-05
4.38551e-05
4.40139e-05
4.42151e-05
4.44269e-05
4.46386e-05
4.48292e-05
4.50727e-05
4.53163e-05
4.55598e-05
4.57927e-05
4.60468e-05
4.63009e-05
4.65656e-05
4.68409e-05
4.71162e-05
4.73809e-05
4.76562e-05
4.79315e-05
4.81962e-05
4.84397e-05
4.87044e-05
4.89373e-05
4.91914e-05
4.9435e-05
4.96785e-05
4.98691e-05
5.00702e-05
5.02714e-05
5.04726e-05
5.06526e-05
5.08114e-05
5.09596e-05
5.10867e-05
5.12137e-05
5.1309e-05
5.13937e-05
5.14573e-05
5.15208e-05
5.15208e-05
5.15314e-05
7.19237e-05
7.19025e-05
7.18496e-05
7.17755e-05
7.16908e-05
7.15743e-05
7.14155e-05
7.12461e-05
7.10872e-05
7.08755e-05
7.06425e-05
7.04096e-05
7.01449e-05
6.98696e-05
6.95838e-05
6.92873e-05
6.89485e-05
6.86308e-05
6.83026e-05
6.79532e-05
6.76038e-05
6.72544e-05
6.68733e-05
6.64815e-05
6.61109e-05
6.57192e-05
6.53804e-05
6.49886e-05
6.46074e-05
6.42263e-05
6.38875e-05
6.35169e-05
6.31887e-05
6.28498e-05
6.25322e-05
6.22463e-05
6.19393e-05
6.16746e-05
6.14311e-05
6.11875e-05
6.09864e-05
6.0764e-05
6.0584e-05
6.04252e-05
6.0277e-05
6.01711e-05
6.00758e-05
6.00017e-05
5.9917e-05
5.99276e-05
5.99276e-05
5.99488e-05
5.99911e-05
6.00335e-05
6.01288e-05
6.02558e-05
6.03934e-05
6.05523e-05
6.07429e-05
6.0944e-05
6.11558e-05
6.13993e-05
6.1664e-05
6.19499e-05
6.22357e-05
6.25534e-05
6.2871e-05
6.32098e-05
6.35381e-05
6.38769e-05
6.42263e-05
6.45969e-05
6.49674e-05
6.5338e-05
6.5698e-05
6.6058e-05
6.64391e-05
6.68309e-05
6.71803e-05
6.75615e-05
6.79215e-05
6.8292e-05
6.86203e-05
6.89591e-05
6.92555e-05
6.95626e-05
6.9859e-05
7.01343e-05
7.0399e-05
7.06637e-05
7.08649e-05
7.10767e-05
7.12566e-05
7.14049e-05
7.15531e-05
7.16696e-05
7.1786e-05
7.18178e-05
7.18707e-05
7.19025e-05
9.19666e-05
9.19348e-05
9.18713e-05
9.1776e-05
9.16596e-05
9.15007e-05
9.13419e-05
9.11407e-05
9.09078e-05
9.06431e-05
9.03467e-05
9.00396e-05
8.9722e-05
8.93514e-05
8.89808e-05
8.85996e-05
8.81761e-05
8.77526e-05
8.73291e-05
8.68738e-05
8.64397e-05
8.59633e-05
8.54974e-05
8.50421e-05
8.45445e-05
8.40786e-05
8.35598e-05
8.31045e-05
8.26281e-05
8.21622e-05
8.16963e-05
8.12305e-05
8.07964e-05
8.03834e-05
7.99811e-05
7.95893e-05
7.92293e-05
7.88799e-05
7.85729e-05
7.82553e-05
7.79694e-05
7.77047e-05
7.74718e-05
7.72706e-05
7.71118e-05
7.69424e-05
7.68259e-05
7.67412e-05
7.66882e-05
7.66459e-05
7.66353e-05
7.66882e-05
7.67412e-05
7.68259e-05
7.69212e-05
7.708e-05
7.726e-05
7.74718e-05
7.76941e-05
7.79482e-05
7.82341e-05
7.85623e-05
7.89011e-05
7.92293e-05
7.95999e-05
8.00128e-05
8.03834e-05
8.07964e-05
8.1241e-05
8.17069e-05
8.2141e-05
8.26175e-05
8.30939e-05
8.35704e-05
8.40363e-05
8.45233e-05
8.49998e-05
8.54762e-05
8.59421e-05
8.64079e-05
8.6895e-05
8.73397e-05
8.77632e-05
8.8155e-05
8.85679e-05
8.89808e-05
8.93514e-05
8.97114e-05
9.0029e-05
9.03467e-05
9.06431e-05
9.08972e-05
9.11196e-05
9.13102e-05
9.15113e-05
9.16384e-05
9.17443e-05
9.1829e-05
9.19243e-05
9.1956e-05
0.000111671
0.000111618
0.000111565
0.000111438
0.000111279
0.00011111
0.000110919
0.000110644
0.000110379
0.000110051
0.000109701
0.000109288
0.000108928
0.000108494
0.00010805
0.000107563
0.000107086
0.000106578
0.000106027
0.000105509
0.000104958
0.000104386
0.000103814
0.000103243
0.000102671
0.000102067
0.000101453
0.000100892
0.00010032
9.97487e-05
9.9177e-05
9.86476e-05
9.81182e-05
9.76205e-05
9.71441e-05
9.6657e-05
9.62018e-05
9.57888e-05
9.53547e-05
9.50053e-05
9.46559e-05
9.43489e-05
9.40842e-05
9.38195e-05
9.36077e-05
9.34277e-05
9.32795e-05
9.31524e-05
9.31207e-05
9.30572e-05
9.30572e-05
9.30889e-05
9.3163e-05
9.32795e-05
9.34277e-05
9.36077e-05
9.38195e-05
9.4063e-05
9.43383e-05
9.46559e-05
9.49947e-05
9.53653e-05
9.57888e-05
9.62124e-05
9.66465e-05
9.71123e-05
9.76205e-05
9.81288e-05
9.86688e-05
9.92087e-05
9.97593e-05
0.00010032
0.000100892
0.000101453
0.000102046
0.000102629
0.0001032
0.000103783
0.000104376
0.000104937
0.000105487
0.000106017
0.000106557
0.000107076
0.000107573
0.000108028
0.000108494
0.000108928
0.000109341
0.000109691
0.00011004
0.000110358
0.000110633
0.000110898
0.000111088
0.000111279
0.000111417
0.000111544
0.000111597
0.00011165
0.000130898
0.000130856
0.000130761
0.000130655
0.000130475
0.000130252
0.000129988
0.000129723
0.000129363
0.000129024
0.000128633
0.000128156
0.00012769
0.000127203
0.000126663
0.000126123
0.00012553
0.000124916
0.000124323
0.000123699
0.000123042
0.000122386
0.000121708
0.00012102
0.000120353
0.000119654
0.000118976
0.000118267
0.0001176
0.000116943
0.000116276
0.000115673
0.000115038
0.000114434
0.000113873
0.000113301
0.000112761
0.000112285
0.00011183
0.000111385
0.000110982
0.000110612
0.000110284
0.000109987
0.000109744
0.000109532
0.000109373
0.000109235
0.00010913
0.000109066
0.000109077
0.00010913
0.000109235
0.000109341
0.000109521
0.000109733
0.000109966
0.000110273
0.000110601
0.000110951
0.000111385
0.000111808
0.000112264
0.000112793
0.000113291
0.000113852
0.000114445
0.000115059
0.000115662
0.000116298
0.000116954
0.000117611
0.000118267
0.000118945
0.000119643
0.000120332
0.000120999
0.000121697
0.000122375
0.000123042
0.000123688
0.000124334
0.000124948
0.000125551
0.000126123
0.000126663
0.000127203
0.000127733
0.000128167
0.000128601
0.000128993
0.000129374
0.000129713
0.000130009
0.000130252
0.000130454
0.000130655
0.000130782
0.000130867
0.000130898
0.000149607
0.000149586
0.00014948
0.000149342
0.000149131
0.000148908
0.000148591
0.000148252
0.000147881
0.000147468
0.000146992
0.000146516
0.000145965
0.000145404
0.0001448
0.000144165
0.000143509
0.00014282
0.000142111
0.00014137
0.000140639
0.000139898
0.000139125
0.000138352
0.000137558
0.000136785
0.000136023
0.000135208
0.000134456
0.000133683
0.000132931
0.000132222
0.000131512
0.000130824
0.000130136
0.000129522
0.000128929
0.000128347
0.000127817
0.00012732
0.000126843
0.000126441
0.000126081
0.000125742
0.000125414
0.000125181
0.00012498
0.000124863
0.000124736
0.000124704
0.000124704
0.000124747
0.00012481
0.000124959
0.00012517
0.000125414
0.000125721
0.000126039
0.00012642
0.000126854
0.000127309
0.000127807
0.000128336
0.000128908
0.000129522
0.000130147
0.000130803
0.000131502
0.000132211
0.000132931
0.000133683
0.000134456
0.000135218
0.000136012
0.000136764
0.000137548
0.000138331
0.000139115
0.000139866
0.000140629
0.000141391
0.000142111
0.00014282
0.000143519
0.000144197
0.000144853
0.000145425
0.000145986
0.000146526
0.000147013
0.000147468
0.000147881
0.000148273
0.000148623
0.000148908
0.000149152
0.000149332
0.000149491
0.000149597
0.000149628
0.000167744
0.000167691
0.000167585
0.000167416
0.000167215
0.00016695
0.000166611
0.000166241
0.000165807
0.000165341
0.000164822
0.000164293
0.000163689
0.000163054
0.000162355
0.000161635
0.000160915
0.000160153
0.000159359
0.000158533
0.000157696
0.000156849
0.000155992
0.000155113
0.000154245
0.000153355
0.000152487
0.000151629
0.000150782
0.000149914
0.000149078
0.000148241
0.000147468
0.000146696
0.000145954
0.000145245
0.000144567
0.0001439
0.000143307
0.000142757
0.000142249
0.000141762
0.000141317
0.000140957
0.000140629
0.000140375
0.000140152
0.000139962
0.000139877
0.000139813
0.000139824
0.000139866
0.000139951
0.000140142
0.000140353
0.000140629
0.000140946
0.000141327
0.000141751
0.000142249
0.000142746
0.000143318
0.000143911
0.000144557
0.000145224
0.000145923
0.000146685
0.000147447
0.000148252
0.000149078
0.000149925
0.00015073
0.000151619
0.000152477
0.000153355
0.000154213
0.000155113
0.000155971
0.000156849
0.000157707
0.000158522
0.000159337
0.000160142
0.000160915
0.000161667
0.000162366
0.000163054
0.000163668
0.000164293
0.000164833
0.000165362
0.000165828
0.000166262
0.000166633
0.00016695
0.000167225
0.000167437
0.000167596
0.000167702
0.000167765
0.000185225
0.000185151
0.000185034
0.000184854
0.000184643
0.000184325
0.000183976
0.000183552
0.000183086
0.000182567
0.000182006
0.000181382
0.000180746
0.000180005
0.000179275
0.00017848
0.000177676
0.000176829
0.00017595
0.000175061
0.000174139
0.000173197
0.000172244
0.000171291
0.000170307
0.000169364
0.00016838
0.000167416
0.000166453
0.000165531
0.000164621
0.0001637
0.00016281
0.000161963
0.000161159
0.000160375
0.000159623
0.000158925
0.000158258
0.000157622
0.00015705
0.000156521
0.000156023
0.000155642
0.000155282
0.000154986
0.000154753
0.000154562
0.000154467
0.000154393
0.000154404
0.000154435
0.000154562
0.000154742
0.000154975
0.000155303
0.000155642
0.000156055
0.000156532
0.000157019
0.000157622
0.000158236
0.000158893
0.000159602
0.000160365
0.000161137
0.000161953
0.00016281
0.0001637
0.0001646
0.00016551
0.000166463
0.000167416
0.00016838
0.000169332
0.000170317
0.00017127
0.000172202
0.000173186
0.000174108
0.000175029
0.000175929
0.000176818
0.000177644
0.00017848
0.000179264
0.000180026
0.000180757
0.000181403
0.000182006
0.000182589
0.000183107
0.000183573
0.000183965
0.000184336
0.000184632
0.000184886
0.000185077
0.000185204
0.000185267
0.000201975
0.000201901
0.000201774
0.000201583
0.000201319
0.00020098
0.000200609
0.000200143
0.000199624
0.000199053
0.000198449
0.000197803
0.000197052
0.0001963
0.000195485
0.000194638
0.000193727
0.000192816
0.000191842
0.000190858
0.000189841
0.000188825
0.000187787
0.000186739
0.000185691
0.000184643
0.000183584
0.000182525
0.000181487
0.00018046
0.000179465
0.000178491
0.000177517
0.000176606
0.000175706
0.000174859
0.000174055
0.000173282
0.000172541
0.000171852
0.000171196
0.000170667
0.000170148
0.000169703
0.000169332
0.000168994
0.000168729
0.000168538
0.00016839
0.000168337
0.000168305
0.000168369
0.000168528
0.000168729
0.000169004
0.000169311
0.000169724
0.00017018
0.000170677
0.000171228
0.000171842
0.000172519
0.00017325
0.000174023
0.000174849
0.000175717
0.000176585
0.000177528
0.00017848
0.000179465
0.000180471
0.000181509
0.000182536
0.000183584
0.000184643
0.000185712
0.000186739
0.000187798
0.000188814
0.000189831
0.000190858
0.000191842
0.000192774
0.000193727
0.000194606
0.000195485
0.00019631
0.000197073
0.000197782
0.00019847
0.000199095
0.000199656
0.000200175
0.000200599
0.000201001
0.00020134
0.000201604
0.000201784
0.000201911
0.000201986
0.000217889
0.000217846
0.000217687
0.000217476
0.00021719
0.00021684
0.000216428
0.000215951
0.0002154
0.000214786
0.00021413
0.00021341
0.000212637
0.00021179
0.000210922
0.000210011
0.000209037
0.00020801
0.000206983
0.000205914
0.000204834
0.000203733
0.0002026
0.000201467
0.000200313
0.00019919
0.000198079
0.000196967
0.000195802
0.000194712
0.000193621
0.000192562
0.000191546
0.000190498
0.000189566
0.000188634
0.000187766
0.00018693
0.000186167
0.000185426
0.000184759
0.000184113
0.000183594
0.000183086
0.000182673
0.000182313
0.000182049
0.000181837
0.000181699
0.000181604
0.000181614
0.000181689
0.000181837
0.000182038
0.000182324
0.000182684
0.000183107
0.000183573
0.000184145
0.000184748
0.000185426
0.000186157
0.00018694
0.000187766
0.000188645
0.000189566
0.00019054
0.000191546
0.000192562
0.000193621
0.000194712
0.000195834
0.000196925
0.000198057
0.000199222
0.000200334
0.000201488
0.000202631
0.000203733
0.000204855
0.000205935
0.000206983
0.000208042
0.000209037
0.000210001
0.000210922
0.000211811
0.000212616
0.000213421
0.000214141
0.000214818
0.000215443
0.000215972
0.000216491
0.000216883
0.000217222
0.000217507
0.000217709
0.000217889
0.000217942
0.000232987
0.000232902
0.000232754
0.000232542
0.000232235
0.000231865
0.000231399
0.000230901
0.000230308
0.000229662
0.000228932
0.000228148
0.000227344
0.000226444
0.000225512
0.000224506
0.00022349
0.00022242
0.000221309
0.000220165
0.000219011
0.000217815
0.000216639
0.000215411
0.000214204
0.000212976
0.000211769
0.000210572
0.000209376
0.00020818
0.000207004
0.000205882
0.000204781
0.000203711
0.000202653
0.000201689
0.000200736
0.000199857
0.000199
0.000198227
0.000197528
0.00019685
0.000196268
0.000195749
0.000195283
0.000194923
0.000194638
0.000194405
0.000194235
0.000194172
0.000194182
0.000194246
0.000194405
0.000194648
0.000194923
0.000195326
0.000195749
0.000196268
0.00019684
0.000197507
0.000198248
0.000199021
0.000199879
0.000200757
0.00020171
0.000202674
0.000203722
0.000204781
0.000205882
0.000207047
0.00020819
0.000209376
0.000210583
0.00021179
0.000213008
0.000214215
0.000215443
0.000216639
0.000217857
0.000219043
0.000220186
0.00022133
0.000222441
0.0002235
0.000224527
0.000225533
0.000226444
0.000227354
0.000228191
0.000228964
0.000229694
0.00023034
0.000230922
0.000231431
0.000231886
0.000232256
0.000232553
0.000232786
0.000232945
0.000233029
0.000247185
0.00024708
0.000246942
0.000246688
0.00024637
0.000245968
0.000245481
0.00024492
0.000244327
0.000243638
0.000242866
0.00024204
0.00024114
0.000240219
0.000239213
0.000238164
0.000237074
0.000235941
0.000234745
0.000233569
0.000232331
0.00023106
0.0002298
0.00022854
0.000227259
0.000225957
0.000224644
0.000223363
0.000222081
0.000220843
0.000219604
0.000218407
0.000217222
0.000216089
0.000214998
0.000213929
0.000212944
0.000211991
0.000211112
0.000210265
0.000209514
0.000208836
0.000208222
0.00020764
0.000207205
0.000206803
0.000206464
0.00020621
0.000206051
0.000205977
0.000205988
0.000206062
0.00020621
0.000206464
0.000206782
0.000207174
0.000207661
0.000208222
0.000208836
0.000209556
0.000210297
0.000211134
0.000212023
0.000212965
0.000213971
0.000215019
0.000216099
0.000217232
0.000218407
0.000219614
0.000220864
0.000222092
0.000223373
0.000224665
0.000225935
0.000227248
0.00022854
0.000229832
0.000231092
0.000232352
0.000233569
0.000234787
0.00023593
0.000237095
0.000238175
0.000239213
0.000240229
0.000241171
0.000242082
0.000242908
0.000243649
0.000244337
0.000244962
0.000245502
0.000245978
0.000246391
0.000246698
0.000246963
0.000247111
0.000247185
0.000260357
0.000260261
0.000260113
0.000259849
0.00025952
0.000259086
0.000258578
0.000258017
0.00025735
0.000256619
0.000255836
0.000254957
0.000254004
0.000253019
0.000251961
0.00025087
0.000249716
0.00024853
0.000247302
0.000246031
0.000244729
0.000243427
0.000242061
0.000240716
0.000239361
0.000237984
0.000236619
0.000235263
0.00023394
0.000232606
0.000231335
0.000230033
0.000228805
0.000227619
0.000226465
0.000225343
0.000224284
0.000223299
0.000222378
0.00022151
0.000220684
0.000219964
0.000219318
0.000218746
0.000218238
0.000217825
0.000217476
0.000217243
0.000217052
0.000216957
0.000216946
0.000217073
0.000217222
0.000217476
0.000217804
0.000218217
0.000218725
0.000219318
0.000219985
0.000220705
0.00022151
0.000222378
0.00022331
0.000224326
0.000225364
0.000226475
0.00022763
0.000228837
0.000230065
0.000231325
0.000232627
0.00023394
0.000235295
0.000236629
0.000238006
0.000239372
0.000240727
0.000242082
0.000243416
0.000244761
0.000246063
0.000247312
0.00024853
0.000249737
0.000250902
0.000252003
0.000253051
0.000254057
0.000254968
0.000255846
0.00025664
0.00025736
0.000258006
0.00025861
0.000259097
0.000259531
0.00025988
0.000260113
0.000260283
0.000260357
0.000272501
0.000272427
0.000272247
0.000271993
0.000271633
0.000271199
0.000270669
0.000270076
0.000269378
0.000268605
0.000267747
0.000266858
0.000265841
0.000264814
0.000263713
0.00026257
0.000261373
0.000260124
0.000258832
0.000257498
0.000256143
0.000254766
0.00025339
0.000251929
0.00025051
0.000249081
0.000247662
0.000246232
0.000244845
0.000243469
0.000242114
0.000240801
0.000239488
0.000238239
0.00023701
0.000235867
0.000234755
0.000233718
0.000232733
0.000231844
0.000230975
0.000230224
0.000229535
0.000228953
0.000228413
0.000227947
0.000227619
0.000227322
0.000227153
0.000227079
0.000227068
0.000227142
0.000227333
0.000227608
0.00022799
0.000228413
0.000228942
0.000229525
0.000230234
0.000231007
0.000231844
0.000232765
0.000233728
0.000234776
0.000235899
0.000237074
0.000238249
0.000239499
0.000240801
0.000242135
0.00024348
0.000244867
0.000246254
0.000247683
0.000249112
0.000250552
0.000251982
0.00025339
0.000254788
0.000256175
0.00025754
0.000258864
0.000260177
0.000261394
0.000262612
0.000263755
0.000264857
0.000265905
0.000266879
0.000267779
0.000268615
0.000269367
0.000270055
0.000270648
0.000271188
0.000271622
0.000271972
0.000272247
0.000272416
0.000272522
0.000283587
0.000283491
0.000283311
0.000283015
0.000282655
0.00028221
0.000281681
0.000281035
0.000280336
0.000279521
0.000278642
0.0002777
0.000276694
0.000275625
0.00027446
0.000273242
0.000271993
0.00027068
0.000269346
0.000267948
0.000266561
0.000265111
0.00026365
0.000262188
0.000260685
0.000259192
0.00025772
0.000256249
0.000254766
0.000253348
0.000251918
0.000250542
0.000249239
0.000247916
0.000246635
0.000245438
0.000244295
0.000243215
0.000242198
0.000241246
0.000240377
0.000239583
0.000238853
0.000238217
0.000237667
0.000237212
0.00023683
0.000236555
0.000236375
0.000236269
0.00023629
0.000236365
0.000236555
0.00023682
0.000237222
0.000237677
0.000238217
0.000238853
0.000239573
0.000240377
0.000241256
0.00024222
0.000243215
0.000244305
0.000245449
0.000246667
0.000247948
0.00024925
0.000250605
0.000251961
0.00025339
0.000254809
0.00025627
0.000257731
0.000259213
0.000260717
0.000262188
0.00026366
0.000265121
0.000266551
0.000267959
0.000269367
0.000270733
0.000272014
0.000273274
0.00027447
0.000275593
0.000276662
0.000277689
0.000278653
0.0002795
0.000280315
0.000281035
0.00028167
0.0002822
0.000282665
0.000283025
0.000283301
0.000283491
0.000283587
0.000293539
0.000293455
0.000293253
0.000292968
0.000292576
0.000292099
0.000291559
0.000290903
0.000290172
0.000289336
0.000288436
0.000287462
0.000286424
0.00028527
0.000284105
0.000282856
0.000281564
0.000280209
0.000278811
0.000277382
0.0002759
0.000274417
0.000272903
0.000271379
0.000269844
0.000268308
0.000266784
0.000265238
0.000263734
0.000262231
0.00026078
0.000259351
0.000257943
0.000256609
0.000255317
0.000254068
0.000252892
0.000251759
0.000250701
0.000249716
0.000248816
0.000248011
0.000247238
0.000246582
0.000246021
0.000245544
0.000245142
0.000244888
0.000244665
0.000244581
0.00024457
0.000244676
0.000244888
0.000245153
0.000245534
0.00024601
0.000246582
0.00024726
0.000248011
0.000248827
0.000249748
0.000250711
0.000251759
0.000252882
0.000254089
0.000255317
0.00025663
0.000257985
0.000259372
0.00026078
0.000262263
0.000263755
0.00026527
0.000266805
0.000268329
0.000269865
0.000271389
0.000272925
0.000274449
0.000275932
0.000277393
0.000278833
0.000280209
0.000281575
0.000282867
0.000284116
0.00028527
0.000286403
0.000287441
0.000288436
0.000289336
0.000290162
0.000290913
0.000291549
0.000292142
0.000292618
0.000292978
0.000293275
0.000293465
0.000293592
0.000302348
0.000302243
0.000302031
0.000301745
0.000301353
0.000300866
0.000300284
0.000299606
0.000298844
0.000298007
0.000297097
0.00029608
0.000295011
0.000293825
0.000292608
0.000291305
0.000289961
0.000288595
0.000287155
0.000285694
0.000284169
0.000282634
0.000281067
0.0002795
0.000277933
0.000276344
0.000274767
0.0002732
0.000271633
0.000270108
0.000268594
0.000267122
0.000265651
0.000264264
0.000262961
0.00026168
0.000260452
0.000259298
0.000258186
0.000257212
0.00025628
0.000255423
0.000254671
0.000253983
0.00025339
0.000252903
0.000252511
0.000252183
0.000252003
0.000251908
0.000251908
0.000252024
0.000252225
0.000252532
0.000252903
0.00025339
0.000253983
0.000254682
0.000255423
0.00025628
0.000257202
0.000258207
0.000259319
0.000260484
0.000261691
0.000262983
0.000264306
0.000265693
0.000267112
0.000268605
0.000270098
0.000271654
0.0002732
0.000274777
0.000276366
0.000277943
0.000279542
0.000281109
0.000282665
0.000284211
0.000285715
0.000287187
0.000288616
0.000289992
0.000291326
0.000292608
0.000293846
0.000295
0.00029608
0.000297076
0.000298018
0.000298854
0.000299606
0.000300305
0.000300898
0.000301364
0.000301798
0.000302073
0.000302285
0.000302359
0.00030994
0.000309845
0.000309633
0.000309336
0.000308924
0.000308436
0.000307833
0.000307134
0.000306351
0.000305482
0.000304561
0.000303534
0.000302412
0.000301216
0.000299945
0.000298653
0.000297266
0.000295858
0.000294386
0.000292872
0.000291326
0.000289749
0.00028815
0.000286562
0.000284921
0.000283311
0.000281681
0.000280082
0.000278494
0.000276906
0.00027536
0.000273825
0.000272353
0.000270934
0.000269558
0.000268245
0.000267006
0.000265788
0.000264677
0.000263639
0.000262707
0.000261818
0.000261045
0.000260336
0.000259732
0.000259245
0.000258832
0.000258536
0.000258356
0.00025825
0.00025825
0.000258366
0.000258567
0.000258885
0.000259266
0.000259774
0.000260367
0.000261056
0.000261828
0.000262707
0.00026366
0.000264719
0.000265841
0.000267017
0.000268255
0.000269568
0.000270945
0.000272363
0.000273825
0.000275349
0.000276895
0.000278483
0.000280093
0.000281681
0.000283311
0.000284931
0.000286562
0.000288182
0.000289791
0.000291348
0.000292915
0.000294407
0.000295879
0.000297287
0.000298674
0.000299977
0.000301258
0.000302423
0.000303555
0.000304561
0.000305504
0.000306382
0.000307187
0.000307865
0.000308447
0.000308955
0.000309358
0.000309654
0.000309855
0.00030994
0.000316324
0.000316229
0.000316007
0.0003157
0.000315297
0.0003148
0.000314154
0.000313476
0.000312693
0.000311803
0.000310798
0.000309739
0.000308574
0.000307378
0.000306107
0.000304794
0.000303397
0.000301914
0.000300432
0.000298907
0.00029733
0.00029572
0.0002941
0.000292438
0.000290776
0.000289135
0.000287472
0.000285821
0.000284201
0.000282602
0.000281014
0.000279457
0.000277986
0.000276524
0.000275116
0.000273761
0.00027248
0.000271262
0.000270129
0.000269049
0.000268086
0.000267186
0.000266413
0.000265704
0.0002651
0.00026456
0.000264158
0.000263861
0.00026366
0.000263544
0.000263565
0.000263671
0.000263883
0.000264168
0.000264613
0.000265111
0.000265746
0.000266424
0.000267207
0.000268097
0.000269081
0.000270129
0.000271283
0.00027248
0.000273761
0.000275106
0.000276535
0.000277954
0.000279479
0.000281003
0.000282581
0.000284211
0.000285831
0.000287472
0.000289114
0.000290797
0.000292459
0.000294122
0.000295752
0.00029734
0.000298907
0.000300453
0.000301946
0.000303407
0.000304794
0.000306171
0.00030742
0.000308659
0.000309771
0.00031084
0.000311814
0.000312714
0.000313487
0.000314207
0.00031481
0.000315319
0.000315721
0.000316049
0.00031624
0.000316346
0.000321449
0.000321322
0.000321121
0.000320814
0.00032039
0.000319871
0.000319268
0.000318559
0.000317722
0.000316843
0.000315837
0.000314747
0.000313593
0.000312365
0.000311094
0.000309728
0.000308288
0.000306817
0.000305313
0.000303735
0.000302158
0.000300538
0.000298844
0.000297139
0.000295477
0.000293793
0.000292099
0.000290448
0.000288796
0.000287144
0.000285556
0.000284
0.000282475
0.000280993
0.000279574
0.000278187
0.000276874
0.000275677
0.000274502
0.000273433
0.000272427
0.000271527
0.000270722
0.000270024
0.000269399
0.000268869
0.000268435
0.000268128
0.000267917
0.000267832
0.000267811
0.000267938
0.000268149
0.000268478
0.00026888
0.000269409
0.000270024
0.000270743
0.000271559
0.000272448
0.000273443
0.000274523
0.000275677
0.000276895
0.000278187
0.000279574
0.000280982
0.000282485
0.000284
0.000285598
0.000287187
0.000288806
0.000290458
0.000292163
0.000293836
0.00029554
0.000297213
0.000298907
0.000300559
0.000302168
0.000303767
0.000305334
0.000306869
0.000308352
0.000309771
0.000311126
0.000312428
0.000313646
0.000314789
0.00031588
0.000316864
0.000317775
0.00031858
0.00031931
0.000319946
0.000320433
0.000320845
0.000321153
0.000321385
0.000321491
0.000325324
0.000325208
0.000324996
0.000324678
0.000324265
0.000323715
0.000323111
0.000322391
0.000321544
0.000320623
0.000319628
0.000318527
0.000317362
0.000316144
0.0003148
0.000313434
0.000312005
0.000310512
0.000308987
0.000307399
0.000305779
0.000304095
0.000302433
0.00030075
0.000299024
0.000297298
0.000295625
0.000293931
0.000292258
0.000290606
0.000288986
0.000287398
0.000285852
0.00028436
0.000282909
0.000281533
0.00028023
0.00027897
0.000277827
0.000276704
0.000275709
0.00027482
0.000273973
0.000273253
0.000272639
0.000272109
0.000271686
0.000271379
0.000271135
0.000271008
0.00027104
0.000271146
0.000271347
0.000271686
0.000272088
0.000272607
0.000273232
0.000273983
0.000274809
0.00027572
0.000276704
0.000277795
0.00027896
0.000280209
0.000281543
0.00028293
0.000284381
0.000285863
0.000287409
0.000288986
0.000290638
0.000292279
0.000293973
0.000295689
0.000297383
0.000299087
0.000300792
0.000302475
0.000304117
0.000305779
0.00030742
0.000309008
0.000310543
0.000312047
0.000313508
0.000314842
0.000316155
0.000317373
0.000318569
0.000319649
0.000320665
0.000321576
0.000322402
0.000323132
0.000323768
0.000324297
0.00032471
0.000325049
0.000325229
0.000325345
0.000327886
0.000327802
0.000327579
0.000327251
0.000326806
0.000326298
0.000325663
0.000324901
0.000324085
0.000323164
0.000322169
0.000321068
0.000319903
0.000318633
0.00031733
0.000315912
0.000314482
0.000313
0.000311412
0.000309802
0.000308151
0.000306499
0.000304815
0.0003031
0.000301385
0.00029967
0.000297965
0.00029625
0.000294545
0.000292893
0.000291263
0.000289654
0.000288118
0.000286604
0.000285164
0.000283756
0.000282433
0.000281173
0.000279987
0.000278896
0.00027789
0.000276948
0.000276143
0.000275402
0.000274756
0.000274248
0.000273835
0.000273507
0.000273285
0.000273158
0.000273168
0.000273274
0.000273496
0.000273814
0.000274238
0.000274777
0.000275413
0.000276143
0.00027698
0.000277901
0.000278907
0.000280019
0.000281151
0.000282433
0.000283777
0.000285164
0.000286604
0.000288129
0.000289696
0.000291295
0.000292915
0.000294598
0.000296303
0.000297997
0.000299744
0.000301448
0.000303143
0.000304847
0.000306541
0.000308214
0.000309866
0.000311443
0.000313
0.000314514
0.000315922
0.00031733
0.000318643
0.000319903
0.0003211
0.00032218
0.000323196
0.000324117
0.000324943
0.000325684
0.000326309
0.000326859
0.000327283
0.000327601
0.000327823
0.000327918
0.000329178
0.000329072
0.00032885
0.000328532
0.000328088
0.000327548
0.000326891
0.000326161
0.000325367
0.000324435
0.000323418
0.000322328
0.000321163
0.000319924
0.000318569
0.000317171
0.000315721
0.000314207
0.00031264
0.00031103
0.000309389
0.000307716
0.000306001
0.000304307
0.000302613
0.000300856
0.000299119
0.000297414
0.000295699
0.000294026
0.000292385
0.000290786
0.000289219
0.000287705
0.000286244
0.000284878
0.000283523
0.000282263
0.000281067
0.000279997
0.000278949
0.000278028
0.000277202
0.000276461
0.000275836
0.000275296
0.000274883
0.000274555
0.000274343
0.000274248
0.000274238
0.000274322
0.000274555
0.000274862
0.000275317
0.000275868
0.000276493
0.000277223
0.00027806
0.000278991
0.000279997
0.000281098
0.000282274
0.000283544
0.000284868
0.000286265
0.000287716