/*--------------------------------*- C++ -*----------------------------------*\
  =========                 |
  \\      /  F ield         | OpenFOAM: The Open Source CFD Toolbox
   \\    /   O peration     | Website:  https://openfoam.org
    \\  /    A nd           | Version:  7
     \\/     M anipulation  |
\*---------------------------------------------------------------------------*/
FoamFile
{
    version     2.0;
    format      ascii;
    class       volScalarField;
    location    "0.044";
    object      gradTx;
}
// * * * * * * * * * * * * * * * * * * * * * * * * * * * * * * * * * * * * * //

dimensions      [0 -1 0 1 0 0 0];

internalField   nonuniform List<scalar> 
10000
(
1.03444e-05
3.10014e-05
5.1542e-05
7.19131e-05
9.19454e-05
0.000111639
0.000130898
0.000149628
0.000167765
0.000185257
0.000202007
0.000217963
0.000233008
0.000247185
0.000260378
0.000272522
0.000283608
0.00029355
0.000302359
0.000309972
0.000316335
0.00032147
0.000325345
0.000327939
0.000329189
0.000329168
0.000327886
0.000325271
0.000321396
0.000316229
0.000309792
0.000302168
0.000293349
0.000283375
0.000272289
0.000260134
0.000246921
0.000232765
0.000217687
0.000201753
0.000185024
0.000167575
0.000149448
0.000130718
0.000111501
9.18713e-05
7.18284e-05
5.1542e-05
3.10332e-05
1.03973e-05
-1.02597e-05
-3.09061e-05
-5.14149e-05
-7.17225e-05
-9.17654e-05
-0.000111406
-0.000130644
-0.000149342
-0.000167469
-0.000184918
-0.000201668
-0.000217603
-0.00023268
-0.000246847
-0.000260029
-0.000272183
-0.000283301
-0.000293253
-0.000302063
-0.000309686
-0.000316102
-0.000321269
-0.000325165
-0.000327791
-0.000329104
-0.000329125
-0.000327844
-0.00032525
-0.000321428
-0.000316303
-0.000309887
-0.000302285
-0.000293518
-0.000283555
-0.000272469
-0.000260346
-0.000247164
-0.000232987
-0.00021792
-0.000201964
-0.000185225
-0.000167744
-0.000149597
-0.000130898
-0.000111628
-9.19243e-05
-7.18813e-05
-5.15737e-05
-3.1012e-05
-1.03338e-05
1.0355e-05
3.09908e-05
5.15208e-05
7.18919e-05
9.19137e-05
0.000111607
0.000130845
0.000149607
0.000167702
0.000185193
0.000201943
0.000217867
0.000232945
0.000247122
0.000260283
0.000272438
0.000283513
0.000293444
0.000302253
0.000309876
0.000316261
0.000321364
0.00032525
0.000327802
0.000329093
0.000329051
0.00032777
0.000325176
0.000321269
0.000316123
0.000309686
0.000302105
0.000293253
0.000283258
0.000272194
0.000260029
0.000246857
0.000232691
0.000217624
0.000201689
0.000184971
0.000167501
0.000149395
0.000130697
0.00011147
9.18184e-05
7.18284e-05
5.15208e-05
3.10226e-05
1.03867e-05
-1.02703e-05
-3.09061e-05
-5.13937e-05
-7.16908e-05
-9.17231e-05
-0.000111374
-0.000130612
-0.00014929
-0.000167405
-0.000184876
-0.000201583
-0.000217529
-0.000232616
-0.000246751
-0.000259923
-0.000272109
-0.000283205
-0.000293158
-0.000301967
-0.000309591
-0.000316007
-0.000321153
-0.00032507
-0.000327675
-0.000328998
-0.000329009
-0.000327728
-0.000325176
-0.000321301
-0.000316176
-0.000309813
-0.00030219
-0.000293423
-0.00028347
-0.000272385
-0.000260251
-0.00024708
-0.000232913
-0.000217846
-0.000201901
-0.000185161
-0.00016767
-0.000149554
-0.000130856
-0.000111597
-9.18925e-05
-7.18707e-05
-5.15525e-05
-3.09908e-05
-1.03444e-05
1.03338e-05
3.09908e-05
5.15102e-05
7.18178e-05
9.18607e-05
0.000111533
0.000130782
0.00014947
0.000167596
0.000185087
0.000201795
0.000217709
0.000232807
0.000246974
0.000260092
0.000272279
0.000283333
0.000293264
0.000302052
0.000309665
0.000316028
0.000321153
0.000325028
0.00032759
0.000328871
0.00032885
0.000327558
0.000324964
0.000321057
0.000315912
0.000309495
0.000301872
0.000293063
0.000283078
0.000272003
0.000259891
0.000246688
0.000232532
0.000217476
0.000201573
0.000184865
0.000167395
0.000149279
0.000130602
0.000111417
9.17548e-05
7.17543e-05
5.1489e-05
3.10014e-05
1.03867e-05
-1.02809e-05
-3.08849e-05
-5.1362e-05
-7.16378e-05
-9.16807e-05
-0.000111311
-0.000130507
-0.000149194
-0.0001673
-0.000184748
-0.000201435
-0.00021738
-0.000232458
-0.000246592
-0.000259753
-0.000271919
-0.000283025
-0.000292978
-0.000301787
-0.000309389
-0.000315784
-0.000320962
-0.000324858
-0.000327452
-0.000328755
-0.000328786
-0.000327516
-0.000324954
-0.0003211
-0.000315986
-0.000309601
-0.000301999
-0.000293222
-0.00028328
-0.000272205
-0.000260081
-0.000246921
-0.000232786
-0.000217687
-0.000201742
-0.000185024
-0.000167596
-0.000149459
-0.000130761
-0.000111512
-9.18607e-05
-7.18178e-05
-5.1489e-05
-3.09908e-05
-1.0355e-05
1.03338e-05
3.09591e-05
5.14467e-05
7.17543e-05
9.17654e-05
0.000111427
0.000130634
0.000149342
0.000167427
0.000184886
0.000201594
0.000217518
0.000232553
0.000246709
0.000259891
0.000272003
0.000283047
0.000292989
0.000301777
0.000309358
0.00031571
0.000320845
0.000324689
0.000327262
0.000328543
0.000328543
0.000327241
0.000324615
0.000320761
0.000315604
0.000309188
0.000301565
0.000292766
0.000282824
0.000271739
0.000259626
0.000246444
0.000232309
0.000217275
0.000201382
0.000184674
0.000167215
0.000149141
0.000130485
0.0001113
9.1649e-05
7.16802e-05
5.14255e-05
3.09485e-05
1.03973e-05
-1.02703e-05
-3.08532e-05
-5.13196e-05
-7.15743e-05
-9.15854e-05
-0.000111215
-0.00013038
-0.000149046
-0.00016712
-0.000184547
-0.000201276
-0.000217169
-0.000232203
-0.000246328
-0.00025952
-0.000271665
-0.000282708
-0.000292692
-0.000301491
-0.000309114
-0.000315477
-0.000320644
-0.000324541
-0.000327124
-0.000328448
-0.000328469
-0.000327177
-0.000324647
-0.000320771
-0.000315679
-0.000309294
-0.000301703
-0.000292925
-0.000283004
-0.000271961
-0.000259827
-0.000246677
-0.000232542
-0.000217444
-0.000201551
-0.000184844
-0.000167427
-0.000149311
-0.000130623
-0.000111406
-9.17548e-05
-7.17543e-05
-5.14678e-05
-3.09696e-05
-1.03232e-05
1.03338e-05
3.09273e-05
5.1362e-05
7.16696e-05
9.16384e-05
0.000111279
0.000130454
0.000149131
0.000167236
0.000184632
0.000201329
0.000217211
0.000232267
0.000246391
0.000259541
0.000271633
0.000282665
0.000292629
0.000301385
0.000308955
0.000315319
0.000320422
0.000324265
0.000326838
0.000328119
0.000328109
0.000326828
0.000324191
0.000320306
0.000315181
0.000308775
0.000301194
0.000292375
0.000282443
0.0002714
0.000259287
0.000246127
0.000232024
0.000216999
0.000201096
0.000184431
0.000167014
0.00014894
0.000130305
0.000111152
9.15537e-05
7.15849e-05
5.13408e-05
3.09273e-05
1.03656e-05
-1.02491e-05
-3.08108e-05
-5.12773e-05
-7.15002e-05
-9.14478e-05
-0.000111046
-0.000130231
-0.000148845
-0.000166897
-0.000184314
-0.000201001
-0.000216883
-0.000231907
-0.00024601
-0.00025916
-0.000271305
-0.000282358
-0.000292311
-0.000301099
-0.000308712
-0.000315086
-0.00032021
-0.000324107
-0.000326711
-0.000328035
-0.000328045
-0.000326754
-0.000324212
-0.000320358
-0.000315244
-0.000308871
-0.000301311
-0.000292544
-0.000282655
-0.000271591
-0.000259478
-0.00024636
-0.000232246
-0.000217158
-0.000201276
-0.0001846
-0.000167215
-0.00014912
-0.000130454
-0.000111268
-9.16278e-05
-7.16696e-05
-5.14043e-05
-3.09167e-05
-1.03126e-05
1.0302e-05
3.08638e-05
5.12878e-05
7.15319e-05
9.14901e-05
0.00011112
0.000130252
0.000148898
0.00016695
0.000184314
0.000201001
0.000216872
0.000231886
0.000246
0.000259097
0.000271188
0.000282231
0.000292152
0.000300887
0.000308458
0.0003148
0.000319903
0.000323757
0.000326309
0.000327579
0.000327558
0.000326267
0.000323694
0.000319787
0.000314662
0.000308278
0.000300676
0.00029193
0.000281988
0.000270976
0.000258864
0.000245735
0.000231642
0.000216639
0.000200789
0.000184124
0.000166717
0.000148707
0.000130115
0.000110961
9.13737e-05
7.14896e-05
5.12773e-05
3.08638e-05
1.03444e-05
-1.02279e-05
-3.07579e-05
-5.11926e-05
-7.13943e-05
-9.13102e-05
-0.000110866
-0.000129998
-0.000148623
-0.000166643
-0.000184007
-0.000200662
-0.000216491
-0.000231536
-0.00024564
-0.000258726
-0.00027086
-0.000281935
-0.000291835
-0.000300591
-0.000308204
-0.000314577
-0.000319691
-0.000323577
-0.000326192
-0.000327505
-0.000327505
-0.000326224
-0.000323694
-0.00031985
-0.000314715
-0.000308384
-0.000300824
-0.000292089
-0.000282189
-0.000271146
-0.000259065
-0.000245947
-0.000231854
-0.000216798
-0.000200959
-0.000184304
-0.000166929
-0.000148887
-0.000130231
-0.000111088
-9.15113e-05
-7.15637e-05
-5.12878e-05
-3.08532e-05
-1.02915e-05
1.02915e-05
3.08108e-05
5.1182e-05
7.13943e-05
9.13102e-05
0.000110898
0.000130009
0.000148601
0.000166622
0.000183976
0.000200577
0.000216449
0.000231441
0.000245523
0.000258599
0.000270669
0.00028167
0.000291581
0.000300326
0.000307875
0.000314196
0.000319289
0.000323132
0.000325684
0.000326934
0.000326912
0.000325621
0.000323058
0.000319183
0.000314037
0.000307674
0.000300114
0.000291358
0.00028148
0.000270426
0.000258334
0.000245258
0.000231208
0.000216205
0.000200408
0.000183764
0.000166421
0.000148411
0.00012985
0.00011076
9.1236e-05
7.1299e-05
5.11714e-05
3.08108e-05
1.03126e-05
-1.02067e-05
-3.06838e-05
-5.10867e-05
-7.12355e-05
-9.11302e-05
-0.000110675
-0.000129744
-0.000148326
-0.000166315
-0.000183658
-0.000200292
-0.000216078
-0.000231071
-0.000245153
-0.00025825
-0.000270331
-0.000281363
-0.000291252
-0.000300019
-0.000307621
-0.000313974
-0.000319067
-0.000322974
-0.000325557
-0.000326849
-0.000326881
-0.00032561
-0.000323048
-0.000319204
-0.000314122
-0.00030778
-0.000300252
-0.000291517
-0.000281638
-0.000270638
-0.000258557
-0.000245449
-0.000231388
-0.000216406
-0.000200577
-0.000183954
-0.000166611
-0.00014858
-0.000129998
-0.000110866
-9.13102e-05
-7.14049e-05
-5.12137e-05
-3.08002e-05
-1.02809e-05
1.02809e-05
3.07367e-05
5.10867e-05
7.12355e-05
9.10984e-05
0.000110623
0.000129723
0.000148273
0.000166262
0.000183573
0.000200112
0.00021594
0.000230944
0.000244962
0.000258027
0.000270066
0.000281014
0.000290945
0.000299648
0.000307187
0.000313497
0.00031858
0.000322402
0.000324943
0.000326224
0.000326182
0.00032489
0.000322296
0.000318463
0.000313328
0.000307007
0.000299447
0.000290702
0.000280813
0.000269822
0.000257763
0.000244729
0.000230689
0.000215729
0.000199953
0.000183361
0.00016605
0.000148072
0.000129543
0.000110495
9.10243e-05
7.11825e-05
5.10337e-05
3.07261e-05
1.02915e-05
-1.01856e-05
-3.05991e-05
-5.09808e-05
-7.10978e-05
-9.0929e-05
-0.000110411
-0.000129469
-0.000147998
-0.000165934
-0.000183234
-0.000199815
-0.000215612
-0.000230552
-0.000244602
-0.000257667
-0.000269727
-0.000280728
-0.000290606
-0.000299352
-0.000306912
-0.000313243
-0.000318368
-0.000322264
-0.000324827
-0.000326118
-0.00032615
-0.000324869
-0.000322307
-0.000318506
-0.000313402
-0.000307092
-0.000299574
-0.000290861
-0.000281003
-0.000270024
-0.000257985
-0.000244888
-0.000230891
-0.000215919
-0.000200133
-0.000183531
-0.00016622
-0.000148263
-0.000129691
-0.000110633
-9.1109e-05
-7.12249e-05
-5.10973e-05
-3.07367e-05
-1.02597e-05
1.02491e-05
3.06732e-05
5.09384e-05
7.10555e-05
9.0876e-05
0.000110358
0.000129374
0.000147892
0.000165817
0.000183097
0.000199635
0.0002154
0.00023034
0.000244348
0.000257371
0.000269367
0.000280326
0.000290183
0.000298886
0.000306393
0.000312714
0.000317764
0.000321587
0.000324117
0.000325388
0.000325356
0.000324054
0.000321513
0.000317648
0.000312534
0.000306192
0.000298696
0.000289971
0.000280082
0.000269145
0.000257127
0.000244073
0.000230097
0.000215199
0.000199423
0.000182885
0.000165648
0.000147712
0.000129194
0.00011021
9.07808e-05
7.10025e-05
5.09067e-05
3.06414e-05
1.02809e-05
-1.01538e-05
-3.05673e-05
-5.08537e-05
-7.08967e-05
-9.06855e-05
-0.000110135
-0.00012912
-0.000147617
-0.0001655
-0.000182779
-0.000199328
-0.000215051
-0.000229959
-0.000243977
-0.000257022
-0.000269028
-0.000279997
-0.000289865
-0.00029859
-0.000306139
-0.000312449
-0.000317553
-0.000321428
-0.000324001
-0.000325314
-0.000325314
-0.000324032
-0.000321502
-0.000317701
-0.000312608
-0.000306308
-0.000298812
-0.000290098
-0.000280273
-0.000269304
-0.000257318
-0.000244316
-0.000230308
-0.00021539
-0.000199624
-0.000183054
-0.000165786
-0.000147871
-0.000129374
-0.000110358
-9.0876e-05
-7.10661e-05
-5.0949e-05
-3.06626e-05
-1.02385e-05
1.02279e-05
3.05779e-05
5.07902e-05
7.08649e-05
9.06431e-05
0.00011003
0.000128982
0.00014749
0.000165362
0.000182578
0.000199053
0.000214818
0.000229705
0.000243638
0.000256609
0.000268626
0.000279542
0.000289368
0.00029805
0.000305525
0.000311814
0.000316875
0.000320665
0.000323196
0.000324456
0.000324435
0.000323154
0.000320602
0.000316727
0.000311655
0.000305324
0.000297838
0.000289135
0.000279299
0.000268382
0.000256386
0.000243363
0.000229451
0.000214596
0.000198873
0.000182345
0.00016515
0.000147267
0.000128855
0.000109913
9.05372e-05
7.07696e-05
5.0769e-05
3.05885e-05
1.02279e-05
-1.01326e-05
-3.04826e-05
-5.07055e-05
-7.06955e-05
-9.04419e-05
-0.000109818
-0.00012876
-0.000147193
-0.000165023
-0.000182239
-0.000198746
-0.000214448
-0.000229324
-0.000243278
-0.000256291
-0.000268287
-0.000279182
-0.000289039
-0.000297721
-0.000305249
-0.000311602
-0.000316674
-0.000320507
-0.000323069
-0.000324392
-0.000324392
-0.000323111
-0.000320602
-0.000316759
-0.000311729
-0.000305461
-0.000297944
-0.000289283
-0.000279468
-0.000268573
-0.000256587
-0.000243596
-0.000229631
-0.000214786
-0.000199063
-0.000182546
-0.00016532
-0.000147447
-0.000129003
-0.00011004
-9.06219e-05
-7.08437e-05
-5.0822e-05
-3.05779e-05
-1.02067e-05
1.0175e-05
3.04826e-05
5.06632e-05
7.06425e-05
9.03572e-05
0.00010968
0.000128601
0.000147003
0.000164822
0.000182027
0.00019846
0.000214141
0.000228964
0.000242876
0.000255825
0.000267779
0.000278684
0.000288457
0.000297107
0.000304572
0.000310851
0.00031589
0.00031966
0.00032219
0.000323461
0.000323418
0.000322116
0.000319586
0.000315763
0.000310681
0.000304381
0.000296885
0.000288235
0.000278441
0.000267546
0.000255603
0.000242611
0.00022872
0.000213897
0.000198227
0.000181773
0.000164631
0.000146812
0.000128474
0.000109553
9.02514e-05
7.05684e-05
5.06314e-05
3.04826e-05
1.01962e-05
-1.0122e-05
-3.03979e-05
-5.05467e-05
-7.04837e-05
-9.01349e-05
-0.000109458
-0.000128347
-0.000146727
-0.000164547
-0.000181689
-0.00019811
-0.000213781
-0.000228582
-0.000242516
-0.000255476
-0.000267451
-0.000278335
-0.000288108
-0.000296811
-0.000304297
-0.000310607
-0.000315668
-0.00031949
-0.000322084
-0.000323387
-0.000323376
-0.000322137
-0.000319596
-0.000315784
-0.000310755
-0.000304487
-0.000297033
-0.000288383
-0.0002786
-0.000267715
-0.000255772
-0.000242823
-0.000228921
-0.000214119
-0.000198439
-0.000181953
-0.000164822
-0.000147003
-0.00012859
-0.00010968
-9.03361e-05
-7.0632e-05
-5.06632e-05
-3.0472e-05
-1.01644e-05
1.01432e-05
3.03767e-05
5.04938e-05
7.0399e-05
9.00396e-05
0.00010932
0.000128177
0.000146494
0.000164271
0.000181403
0.000197793
0.000213431
0.000228201
0.00024205
0.000254968
0.000266868
0.0002777
0.000287483
0.00029608
0.000303545
0.000309802
0.0003148
0.00031858
0.0003211
0.000322349
0.000322328
0.000321047
0.000318495
0.000314683
0.000309633
0.000303344
0.000295879
0.000287239
0.000277499
0.000266635
0.000254735
0.000241796
0.000227947
0.000213156
0.000197539
0.00018117
0.00016407
0.000146304
0.00012804
0.000109193
8.99337e-05
7.03355e-05
5.04514e-05
3.03661e-05
1.0175e-05
-1.01009e-05
-3.02814e-05
-5.03667e-05
-7.0219e-05
-8.98384e-05
-0.000109108
-0.000127891
-0.00014624
-0.000163964
-0.000181085
-0.000197454
-0.00021305
-0.00022781
-0.00024169
-0.000254608
-0.000266519
-0.000277372
-0.000287155
-0.000295794
-0.00030327
-0.000309538
-0.000314599
-0.000318431
-0.000320983
-0.000322264
-0.000322296
-0.000321025
-0.000318516
-0.000314726
-0.000309686
-0.00030346
-0.000296027
-0.000287388
-0.000277647
-0.000266794
-0.000254904
-0.000241987
-0.00022817
-0.000213378
-0.000197761
-0.00018135
-0.00016425
-0.000146494
-0.000128177
-0.00010931
-9.00184e-05
-7.04096e-05
-5.04726e-05
-3.03767e-05
-1.01432e-05
1.01115e-05
3.02708e-05
5.02926e-05
7.01555e-05
8.97326e-05
0.000108928
0.00012769
0.000145954
0.000163668
0.000180757
0.000197062
0.000212658
0.000227365
0.000241161
0.000254036
0.000265894
0.000276673
0.000286424
0.000295011
0.000302423
0.000308669
0.000313646
0.000317404
0.000319903
0.000321184
0.000321195
0.000319871
0.000317309
0.000313508
0.000308489
0.000302264
0.000294799
0.000286181
0.00027645
0.000265682
0.000253792
0.000240917
0.000227111
0.000212383
0.000196829
0.000180482
0.000163456
0.000145785
0.000127542
0.000108801
8.96373e-05
7.00814e-05
5.02608e-05
3.02391e-05
1.0122e-05
-1.00479e-05
-3.01755e-05
-5.01655e-05
-6.99967e-05
-8.9489e-05
-0.000108685
-0.000127468
-0.00014569
-0.000163382
-0.000180397
-0.000196713
-0.000212256
-0.000226973
-0.000240801
-0.000253676
-0.000265555
-0.000276366
-0.000286096
-0.000294704
-0.000302158
-0.000308394
-0.000313445
-0.000317267
-0.000319787
-0.00032111
-0.00032111
-0.00031985
-0.00031733
-0.000313572
-0.000308574
-0.000302338
-0.000294926
-0.000286339
-0.000276641
-0.00026582
-0.000253972
-0.000241129
-0.000227322
-0.000212595
-0.00019703
-0.000180662
-0.000163668
-0.000145954
-0.00012769
-0.000108939
-8.97008e-05
-7.01449e-05
-5.02926e-05
-3.02497e-05
-1.00903e-05
1.00585e-05
3.0165e-05
5.01126e-05
6.98802e-05
8.93514e-05
0.000108484
0.000127203
0.000145414
0.000163043
0.000180026
0.000196289
0.000211832
0.000226475
0.000240229
0.000253041
0.000264857
0.000275603
0.000285281
0.000293846
0.000301247
0.000307441
0.000312428
0.000316176
0.000318654
0.000319935
0.000319903
0.000318633
0.000316092
0.00031228
0.000307272
0.000301067
0.000293645
0.000285058
0.00027537
0.000264634
0.000252808
0.000239975
0.0002262
0.000211536
0.000196056
0.000179793
0.0001628
0.000145213
0.000127055
0.000108378
8.92667e-05
6.98167e-05
5.00596e-05
3.01226e-05
1.01115e-05
-1.00162e-05
-3.00591e-05
-4.99538e-05
-6.97108e-05
-8.91608e-05
-0.000108272
-0.00012697
-0.000145129
-0.000162715
-0.000179677
-0.00019594
-0.00021143
-0.000226084
-0.000239848
-0.000252681
-0.000264518
-0.000275286
-0.000284974
-0.000293529
-0.000300961
-0.000307208
-0.000312227
-0.000316017
-0.000318537
-0.00031985
-0.000319861
-0.00031858
-0.000316102
-0.000312333
-0.000307367
-0.000301173
-0.000293772
-0.000285207
-0.000275572
-0.000264772
-0.000252977
-0.000240176
-0.000226401
-0.000211769
-0.000196268
-0.000179973
-0.000163022
-0.000145404
-0.000127203
-0.000108494
-8.9362e-05
-6.98696e-05
-5.00808e-05
-3.01332e-05
-1.00479e-05
1.00162e-05
3.00273e-05
4.9922e-05
6.95732e-05
8.9002e-05
0.000108028
0.000126663
0.0001448
0.000162397
0.000179296
0.000195485
0.000210911
0.000225544
0.000239223
0.000251992
0.000263745
0.00027447
0.000284105
0.000292618
0.000299998
0.000306171
0.000311126
0.000314853
0.000317373
0.00031859
0.000318559
0.00031732
0.000314747
0.000311009
0.000305991
0.000299807
0.000292406
0.000283883
0.000274238
0.000263501
0.000251749
0.000238969
0.000225279
0.000210668
0.00019522
0.000179052
0.000162154
0.00014461
0.000126526
0.000107944
8.89067e-05
6.94991e-05
4.98479e-05
2.99956e-05
1.00691e-05
-9.96323e-06
-2.99426e-05
-4.97738e-05
-6.94144e-05
-8.87796e-05
-0.000107817
-0.00012642
-0.000144525
-0.000162048
-0.000178946
-0.000195114
-0.000210541
-0.000225131
-0.000238842
-0.000251653
-0.000263406
-0.000274132
-0.000283798
-0.000292322
-0.000299712
-0.000305938
-0.000310925
-0.000314683
-0.000317224
-0.000318506
-0.000318537
-0.000317277
-0.000314768
-0.000311052
-0.000306075
-0.000299924
-0.000292555
-0.000284042
-0.000274386
-0.000263692
-0.000251918
-0.00023916
-0.000225491
-0.000210869
-0.000195442
-0.000179253
-0.000162344
-0.00014479
-0.000126684
-0.00010805
-8.89808e-05
-6.95732e-05
-4.98902e-05
-3.00061e-05
-1.00162e-05
9.9844e-06
2.99109e-05
4.96891e-05
6.92767e-05
8.86102e-05
0.000107552
0.000126113
0.000144176
0.000161656
0.000178491
0.000194638
0.000210001
0.000224527
0.000238196
0.000250891
0.000262601
0.000273285
0.000282845
0.000291358
0.000298685
0.000304815
0.000309771
0.000313466
0.000315964
0.000317203
0.000317171
0.000315901
0.000313402
0.000309643
0.000304657
0.000298484
0.000291136
0.000282623
0.000273041
0.000262347
0.000250616
0.000237942
0.000224305
0.000209736
0.000194373
0.000178247
0.000161434
0.000143996
0.000125975
0.000107446
8.85149e-05
6.92132e-05
4.96361e-05
2.98685e-05
9.99499e-06
-9.8997e-06
-2.9805e-05
-4.9562e-05
-6.91179e-05
-8.84091e-05
-0.00010734
-0.000125869
-0.000143879
-0.000161328
-0.000178152
-0.000194267
-0.000209609
-0.000224125
-0.000237815
-0.000250521
-0.000262273
-0.000272946
-0.000282528
-0.00029103
-0.00029841
-0.000304572
-0.000309569
-0.000313317
-0.000315827
-0.000317108
-0.000317129
-0.00031589
-0.000313402
-0.000309665
-0.00030472
-0.000298611
-0.000291295
-0.000282803
-0.000273189
-0.000262517
-0.000250817
-0.000238122
-0.000224485
-0.000209969
-0.000194595
-0.00017847
-0.000161656
-0.000144154
-0.000126102
-0.000107573
-8.85891e-05
-6.92873e-05
-4.96785e-05
-2.98897e-05
-9.9844e-06
9.93146e-06
2.97838e-05
4.94667e-05
6.89802e-05
8.82079e-05
0.000107065
0.000125541
0.000143509
0.000160915
0.000177676
0.000193727
0.000209016
0.000223511
0.000237106
0.000249737
0.000261394
0.000272003
0.000281564
0.000290013
0.000297309
0.000303439
0.000308352
0.000312047
0.000314493
0.000315732
0.0003157
0.000314461
0.000311962
0.000308214
0.00030328
0.000297118
0.000289802
0.000281321
0.000271739
0.00026114
0.000249504
0.00023683
0.000223257
0.000208783
0.000193473
0.000177432
0.000160703
0.000143339
0.000125393
0.000106948
8.81126e-05
6.8885e-05
4.9382e-05
2.9752e-05
9.95264e-06
-9.88911e-06
-2.96673e-05
-4.92973e-05
-6.87685e-05
-8.79961e-05
-0.000106864
-0.000125308
-0.000143212
-0.000160576
-0.000177326
-0.000193356
-0.000208656
-0.000223108
-0.000236693
-0.000249366
-0.000261045
-0.000271675
-0.000281257
-0.000289706
-0.000297012
-0.000303206
-0.000308151
-0.000311888
-0.000314376
-0.000315647
-0.000315647
-0.000314429
-0.000311983
-0.000308235
-0.000303333
-0.000297234
-0.000289939
-0.000281501
-0.000271951
-0.00026132
-0.000249674
-0.000237042
-0.000223447
-0.000209016
-0.000193695
-0.000177644
-0.000160904
-0.000143509
-0.000125541
-0.000107086
-8.81867e-05
-6.89485e-05
-4.94561e-05
-2.97414e-05
-9.92087e-06
9.86793e-06
2.96462e-05
4.92338e-05
6.86414e-05
8.77844e-05
0.000106567
0.000124937
0.000142831
0.000160132
0.000176808
0.000192816
0.000208042
0.000222452
0.000235973
0.000248519
0.000260145
0.000270722
0.000280209
0.000288616
0.000295879
0.000301988
0.000306859
0.000310554
0.000312989
0.000314207
0.000314207
0.000312957
0.000310448
0.000306721
0.000301819
0.000295699
0.000288436
0.000279997
0.000270436
0.00025987
0.000248297
0.000235698
0.000222187
0.000207788
0.000192541
0.000176575
0.00015993
0.00014264
0.000124789
0.000106451
8.76785e-05
6.85567e-05
4.91597e-05
2.95826e-05
9.92087e-06
-9.81499e-06
-2.95297e-05
-4.90961e-05
-6.84403e-05
-8.7562e-05
-0.000106345
-0.000124704
-0.000142513
-0.000159803
-0.000176458
-0.000192425
-0.000207682
-0.00022205
-0.000235549
-0.000248159
-0.000259785
-0.000270362
-0.000279891
-0.000288319
-0.000295614
-0.000301734
-0.000306679
-0.000310385
-0.000312883
-0.000314122
-0.000314165
-0.000312936
-0.000310459
-0.000306785
-0.000301883
-0.000295794
-0.000288531
-0.000280146
-0.000270638
-0.000260081
-0.000248498
-0.00023592
-0.000222389
-0.000207989
-0.000192785
-0.000176808
-0.000160121
-0.000142799
-0.000124959
-0.000106557
-8.77738e-05
-6.86414e-05
-4.92126e-05
-2.95826e-05
-9.86793e-06
9.84676e-06
2.94873e-05
4.89691e-05
6.83026e-05
8.73397e-05
0.000106059
0.000124344
0.000142111
0.000159359
0.000175929
0.000191853
0.000207015
0.00022133
0.000234787
0.000247291
0.000258853
0.000269356
0.000278822
0.000287165
0.000294418
0.000300485
0.000305345
0.000309008
0.000311433
0.00031265
0.00031265
0.000311401
0.000308902
0.000305207
0.000300326
0.000294249
0.000286964
0.000278579
0.000269124
0.000258589
0.000247069
0.000234522
0.000221076
0.00020675
0.000191588
0.000175717
0.000159126
0.00014191
0.000124175
0.000105911
8.72338e-05
6.82073e-05
4.89162e-05
2.94344e-05
9.86793e-06
-9.76205e-06
-2.93709e-05
-4.88314e-05
-6.8112e-05
-8.71385e-05
-0.000105816
-0.000124048
-0.000141804
-0.00015902
-0.000175569
-0.000191493
-0.000206634
-0.000220938
-0.000234374
-0.000246921
-0.000258504
-0.000269007
-0.000278494
-0.000286901
-0.000294143
-0.000300231
-0.000305133
-0.00030886
-0.000311316
-0.000312587
-0.000312576
-0.000311369
-0.000308945
-0.000305228
-0.000300379
-0.000294333
-0.000287102
-0.000278759
-0.000269304
-0.00025879
-0.00024727
-0.000234734
-0.000221298
-0.000206951
-0.000191821
-0.000175929
-0.000159327
-0.000142111
-0.000124313
-0.000106038
-8.73185e-05
-6.8292e-05
-4.89691e-05
-2.94344e-05
-9.82558e-06
9.77264e-06
2.93179e-05
4.87362e-05
6.79532e-05
8.69056e-05
0.000105498
0.000123699
0.000141402
0.000158522
0.000175061
0.0001909
0.000205956
0.000220186
0.000233559
0.000246
0.000257509
0.000268001
0.000277403
0.000285715
0.000292883
0.000298929
0.000303778
0.00030742
0.000309845
0.000311052
0.000311052
0.000309792
0.000307335
0.00030363
0.00029878
0.000292713
0.000285482
0.000277149
0.000267758
0.000257276
0.000245788
0.000233315
0.000219911
0.000205681
0.000190646
0.000174817
0.00015831
0.000141169
0.000123519
0.000105371
8.67997e-05
6.78473e-05
4.86726e-05
2.93073e-05
9.81499e-06
-9.7197e-06
-2.92015e-05
-4.85773e-05
-6.77838e-05
-8.66938e-05
-0.000105276
-0.000123392
-0.000141073
-0.000158205
-0.00017469
-0.000190498
-0.000205554
-0.000219784
-0.000233188
-0.00024565
-0.00025717
-0.000267641
-0.000277096
-0.000285408
-0.000292618
-0.000298685
-0.000303566
-0.000307261
-0.000309718
-0.000310967
-0.000310988
-0.000309771
-0.000307325
-0.000303682
-0.000298844
-0.000292809
-0.00028563
-0.00027735
-0.000267927
-0.000257456
-0.000245978
-0.000233538
-0.000220165
-0.000205903
-0.000190847
-0.000175039
-0.000158512
-0.00014137
-0.000123667
-0.000105477
-8.6895e-05
-6.79532e-05
-4.87044e-05
-2.93073e-05
-9.78323e-06
9.74088e-06
2.91697e-05
4.84609e-05
6.75932e-05
8.64503e-05
0.000104947
0.000123053
0.000140639
0.000157696
0.000174139
0.000189905
0.000204855
0.000219
0.000232331
0.00024474
0.000256164
0.000266572
0.000275932
0.000284211
0.000291358
0.00029733
0.000302179
0.000305811
0.000308214
0.0003094
0.000309411
0.000308172
0.000305705
0.000302041
0.000297192
0.000291157
0.000283968
0.000275688
0.000266328
0.00025591
0.000244496
0.000232076
0.000218757
0.000204601
0.000189608
0.000173885
0.000157474
0.000140438
0.000122862
0.00010481
8.63232e-05
6.75085e-05
4.84291e-05
2.91591e-05
9.76205e-06
-9.64559e-06
-2.90532e-05
-4.83232e-05
-6.74132e-05
-8.62385e-05
-0.000104704
-0.000122756
-0.000140353
-0.000157368
-0.000173748
-0.000189481
-0.000204453
-0.00021864
-0.000231949
-0.000244369
-0.000255793
-0.000266233
-0.000275625
-0.000283915
-0.000291083
-0.000297097
-0.000301946
-0.000305652
-0.000308087
-0.000309336
-0.000309326
-0.000308129
-0.000305715
-0.000302063
-0.000297245
-0.000291284
-0.000284137
-0.000275879
-0.00026653
-0.000256079
-0.000244676
-0.000232288
-0.00021899
-0.000204834
-0.000189852
-0.000174108
-0.000157665
-0.000140618
-0.000123053
-0.000104926
-8.64291e-05
-6.75826e-05
-4.84609e-05
-2.91591e-05
-9.73029e-06
9.68794e-06
2.90109e-05
4.82174e-05
6.72227e-05
8.5995e-05
0.000104386
0.000122375
0.000139898
0.000156871
0.000173186
0.000188835
0.000203743
0.000217815
0.000231071
0.000243448
0.000254788
0.000265121
0.000274428
0.000282687
0.000289802
0.000295752
0.000300538
0.000304117
0.00030652
0.000307769
0.000307738
0.000306499
0.000304053
0.000300421
0.000295583
0.000289569
0.000282443
0.000274216
0.000264888
0.000254512
0.000243162
0.000230827
0.00021756
0.000203468
0.000188592
0.000172954
0.000156627
0.000139707
0.000122195
0.000104238
8.58362e-05
6.71485e-05
4.81856e-05
2.89897e-05
9.73029e-06
-9.61382e-06
-2.88732e-05
-4.80797e-05
-6.70427e-05
-8.57515e-05
-0.000104132
-0.000122121
-0.000139602
-0.000156511
-0.000172826
-0.000188454
-0.000203351
-0.000217444
-0.000230711
-0.000243035
-0.000254406
-0.000264793
-0.000274121
-0.000282358
-0.000289516
-0.000295487
-0.000300316
-0.000304
-0.000306425
-0.000307642
-0.000307642
-0.000306457
-0.000304042
-0.000300453
-0.000295678
-0.000289696
-0.000282602
-0.000274396
-0.000265068
-0.000254703
-0.000243363
-0.000231039
-0.000217804
-0.000203722
-0.000188825
-0.000173165
-0.000156818
-0.000139856
-0.000122375
-0.000104386
-8.59633e-05
-6.72227e-05
-4.81856e-05
-2.90003e-05
-9.68794e-06
9.60324e-06
2.88415e-05
4.79632e-05
6.68627e-05
8.55186e-05
0.000103814
0.000121719
0.000139115
0.000155981
0.000172234
0.000187787
0.000202621
0.000216639
0.000229821
0.000242093
0.000253369
0.000263671
0.000272956
0.00028113
0.000288203
0.000294132
0.000298854
0.000302433
0.000304837
0.000306044
0.000306044
0.000304815
0.000302401
0.000298759
0.000293942
0.000288002
0.000280876
0.000272702
0.000263427
0.000253104
0.000241807
0.000229546
0.000216396
0.000202346
0.000187544
0.000171979
0.00015578
0.000138924
0.000121528
0.000103656
8.53703e-05
6.6778e-05
4.78997e-05
2.88309e-05
9.67735e-06
-9.52912e-06
-2.87144e-05
-4.78044e-05
-6.66933e-05
-8.52962e-05
-0.00010356
-0.000121433
-0.000138818
-0.000155663
-0.000171852
-0.000187417
-0.000202219
-0.000216248
-0.00022944
-0.00024168
-0.000253009
-0.000263321
-0.000272628
-0.000280791
-0.000287906
-0.000293867
-0.000298674
-0.000302295
-0.00030472
-0.000305948
-0.000305948
-0.000304762
-0.000302391
-0.000298801
-0.000294037
-0.000288097
-0.000281046
-0.000272872
-0.000263607
-0.000253305
-0.00024204
-0.000229779
-0.000216608
-0.000202589
-0.000187777
-0.000172202
-0.000155971
-0.000139093
-0.000121676
-0.000103814
-8.5508e-05
-6.68627e-05
-4.79315e-05
-2.88309e-05
-9.61382e-06
9.56088e-06
2.87038e-05
4.76774e-05
6.64921e-05
8.50421e-05
0.000103232
0.00012103
0.000138342
0.000155102
0.00017127
0.00018675
0.000201477
0.000215422
0.00022854
0.000240716
0.000251971
0.00026222
0.000271432
0.000279553
0.000286583
0.000292459
0.000297203
0.00030076
0.000303111
0.000304318
0.000304328
0.000303132
0.000300686
0.000297086
0.000292311
0.000286382
0.00027932
0.000271178
0.000261934
0.000251685
0.000240462
0.000228265
0.000215168
0.000201202
0.000186495
0.000171048
0.00015488
0.000138162
0.000120861
0.000103084
8.49045e-05
6.63968e-05
4.76244e-05
2.86509e-05
9.61382e-06
-9.47618e-06
-2.85556e-05
-4.75397e-05
-6.63121e-05
-8.48303e-05
-0.000102978
-0.000120745
-0.000138024
-0.000154785
-0.000170921
-0.000186358
-0.000201086
-0.000215062
-0.000228127
-0.000240314
-0.000251569
-0.00026186