/*--------------------------------*- C++ -*----------------------------------*\
  =========                 |
  \\      /  F ield         | OpenFOAM: The Open Source CFD Toolbox
   \\    /   O peration     | Website:  https://openfoam.org
    \\  /    A nd           | Version:  7
     \\/     M anipulation  |
\*---------------------------------------------------------------------------*/
FoamFile
{
    version     2.0;
    format      ascii;
    class       volScalarField;
    location    "0.035";
    object      gradTy;
}
// * * * * * * * * * * * * * * * * * * * * * * * * * * * * * * * * * * * * * //

dimensions      [0 -1 0 1 0 0 0];

internalField   nonuniform List<scalar> 
10000
(
0.000638049
0.000637657
0.000636884
0.000635741
0.000634184
0.000632225
0.000629843
0.000627037
0.000623819
0.000620145
0.000616015
0.000611388
0.000606296
0.000600695
0.000594607
0.000587957
0.00058081
0.000573124
0.000564886
0.00055613
0.000546834
0.000537029
0.000526717
0.000515907
0.00050463
0.000492931
0.000480861
0.000468441
0.000455725
0.000442765
0.000429647
0.000416444
0.000403198
0.000390016
0.000376961
0.00036415
0.000351646
0.000339523
0.000327908
0.000316875
0.000306509
0.000296917
0.000288139
0.000280304
0.000273433
0.000267641
0.000262908
0.000259351
0.000256937
0.00025573
0.00025573
0.000256937
0.00025934
0.000262919
0.000267641
0.000273454
0.000280315
0.00028815
0.000296906
0.000306509
0.000316886
0.000327918
0.000339523
0.000351635
0.00036415
0.000376961
0.000390016
0.000403198
0.000416433
0.000429668
0.000442776
0.000455725
0.00046843
0.000480861
0.000492941
0.00050463
0.000515896
0.000526696
0.000537019
0.000546834
0.00055613
0.000564897
0.000573113
0.000580821
0.000587968
0.000594585
0.000600705
0.000606306
0.000611388
0.000616015
0.000620155
0.000623819
0.000627058
0.000629854
0.000632236
0.000634184
0.00063573
0.000636905
0.000637678
0.000638059
0.0019114
0.00191024
0.00190793
0.00190443
0.00189976
0.00189387
0.00188674
0.00187834
0.00186863
0.00185759
0.00184514
0.00183129
0.00181594
0.00179913
0.00178077
0.00176084
0.00173933
0.00171622
0.00169148
0.00166514
0.0016372
0.0016077
0.00157667
0.00154417
0.0015103
0.00147515
0.00143881
0.00140144
0.0013632
0.00132427
0.0012848
0.00124504
0.00120521
0.00116555
0.00112629
0.00108771
0.00105006
0.00101361
0.000978641
0.000945426
0.000914256
0.000885351
0.000858966
0.000835354
0.000814719
0.000797196
0.000783008
0.00077224
0.000764998
0.000761356
0.000761356
0.000764998
0.000772229
0.000783008
0.000797196
0.000814697
0.000835344
0.000858955
0.000885329
0.000914234
0.000945437
0.00097863
0.0010136
0.00105006
0.0010877
0.00112629
0.00116554
0.00120521
0.00124504
0.00128478
0.00132424
0.00136318
0.00140144
0.0014388
0.00147513
0.00151029
0.00154417
0.00157667
0.0016077
0.00163721
0.00166513
0.00169148
0.00171623
0.00173934
0.00176087
0.00178078
0.00179913
0.00181596
0.00183129
0.00184516
0.00185759
0.00186864
0.00187834
0.00188673
0.00189387
0.00189977
0.00190445
0.00190792
0.00191025
0.0019114
0.00317647
0.00317454
0.00317067
0.00316483
0.003157
0.00314715
0.00313522
0.00312117
0.00310493
0.00308644
0.00306563
0.00304244
0.0030168
0.00298866
0.00295794
0.00292462
0.00288862
0.00284995
0.00280856
0.00276447
0.00271768
0.0026683
0.00261636
0.00256195
0.00250523
0.00244633
0.00238548
0.00232289
0.00225881
0.00219356
0.00212745
0.00206081
0.00199405
0.00192755
0.00186176
0.00179705
0.00173393
0.00167282
0.00161416
0.00155845
0.00150612
0.00145761
0.00141335
0.00137374
0.0013391
0.00130971
0.00128589
0.00126782
0.00125566
0.00124955
0.00124954
0.00125565
0.00126781
0.00128587
0.00130969
0.00133906
0.00137371
0.00141335
0.00145758
0.00150609
0.0015584
0.00161413
0.00167278
0.0017339
0.00179705
0.00186174
0.00192756
0.00199403
0.00206079
0.00212742
0.00219353
0.00225878
0.00232286
0.00238545
0.00244631
0.00250522
0.00256194
0.00261634
0.00266829
0.00271768
0.00276447
0.00280855
0.00284994
0.00288863
0.00292461
0.00295794
0.00298867
0.00301682
0.00304246
0.00306562
0.00308643
0.00310493
0.00312115
0.00313521
0.00314714
0.003157
0.00316483
0.00317067
0.00317453
0.00317646
0.00442777
0.00442505
0.00441961
0.0044114
0.00440039
0.00438653
0.00436975
0.00434997
0.00432712
0.00430109
0.00427179
0.00423916
0.00420308
0.00416346
0.00412023
0.0040733
0.00402259
0.00396811
0.00390982
0.0038477
0.00378181
0.00371222
0.00363899
0.0035623
0.00348232
0.00339927
0.00331347
0.00322515
0.00313475
0.00304266
0.00294936
0.00285531
0.00276104
0.00266716
0.00257421
0.00248283
0.00239364
0.00230728
0.00222439
0.00214563
0.00207163
0.00200306
0.00194049
0.00188445
0.00183545
0.00179392
0.00176021
0.00173463
0.00171742
0.00170878
0.00170878
0.00171743
0.00173461
0.00176018
0.0017939
0.00183544
0.00188444
0.00194046
0.00200306
0.00207164
0.00214562
0.00222437
0.00230728
0.00239364
0.00248281
0.00257422
0.00266716
0.00276105
0.0028553
0.00294934
0.00304264
0.00313474
0.00322513
0.00331342
0.00339927
0.0034823
0.00356229
0.00363898
0.00371219
0.00378179
0.00384768
0.00390981
0.0039681
0.00402259
0.00407328
0.00412022
0.00416346
0.00420307
0.00423917
0.0042718
0.00430107
0.0043271
0.00434995
0.00436973
0.00438651
0.00440037
0.00441139
0.00441961
0.00442506
0.00442778
0.00565993
0.0056564
0.00564935
0.00563872
0.00562448
0.00560653
0.00558483
0.00555921
0.00552961
0.00549591
0.00545801
0.00541576
0.00536903
0.00531773
0.00526173
0.00520091
0.00513525
0.00506463
0.00498908
0.00490857
0.00482315
0.00473288
0.00463791
0.00453844
0.00443465
0.00432689
0.00421544
0.00410078
0.00398337
0.00386374
0.00374247
0.00362023
0.00349768
0.0033756
0.00325471
0.00313583
0.00301978
0.00290737
0.00279948
0.00269692
0.00260054
0.00251117
0.00242962
0.00235662
0.00229278
0.00223867
0.00219472
0.00216136
0.00213894
0.00212766
0.00212766
0.00213894
0.00216136
0.0021947
0.00223866
0.00229278
0.00235662
0.00242964
0.00251118
0.00260054
0.00269691
0.00279948
0.00290736
0.00301976
0.00313582
0.0032547
0.00337559
0.00349767
0.00362022
0.00374245
0.00386369
0.00398334
0.00410076
0.00421542
0.00432685
0.00443463
0.0045384
0.0046379
0.00473286
0.00482312
0.00490856
0.00498907
0.00506462
0.00513522
0.00520091
0.00526171
0.00531772
0.00536905
0.00541575
0.00545802
0.00549593
0.0055296
0.0055592
0.0055848
0.00560652
0.00562447
0.00563873
0.00564935
0.00565641
0.00565992
0.00686762
0.0068633
0.00685459
0.0068415
0.00682394
0.00680182
0.00677505
0.00674349
0.00670704
0.00666551
0.00661879
0.0065667
0.00650909
0.00644581
0.00637673
0.00630175
0.00622072
0.00613359
0.00604033
0.00594093
0.00583544
0.00572397
0.00560666
0.00548371
0.00535544
0.00522216
0.00508434
0.00494249
0.00479718
0.00464906
0.00449889
0.00434746
0.00419565
0.00404433
0.00389447
0.00374706
0.00360311
0.00346366
0.00332972
0.00320239
0.00308268
0.00297167
0.00287034
0.00277962
0.00270031
0.00263303
0.0025784
0.00253692
0.00250902
0.00249499
0.00249499
0.00250901
0.00253694
0.00257842
0.00263303
0.00270029
0.00277961
0.00287034
0.00297167
0.00308268
0.00320239
0.00332973
0.00346366
0.00360311
0.00374705
0.00389446
0.00404431
0.00419563
0.00434744
0.00449888
0.00464905
0.00479714
0.00494246
0.00508434
0.00522215
0.0053554
0.00548369
0.00560664
0.00572395
0.00583543
0.00594092
0.00604031
0.00613358
0.00622069
0.00630171
0.00637672
0.0064458
0.00650909
0.00656669
0.00661878
0.00666551
0.00670704
0.00674348
0.00677505
0.0068018
0.00682392
0.00684149
0.00685457
0.00686326
0.00686761
0.00804564
0.00804046
0.00803012
0.0080145
0.00799355
0.00796715
0.00793522
0.00789758
0.00785407
0.00780452
0.00774875
0.00768655
0.00761778
0.00754221
0.0074597
0.00737012
0.00727329
0.00716917
0.00705769
0.00693884
0.00681269
0.00667931
0.00653892
0.00639172
0.00623811
0.00607845
0.0059133
0.00574321
0.00556892
0.00539123
0.00521099
0.00502918
0.00484684
0.00466507
0.00448498
0.00430778
0.00413467
0.00396693
0.00380577
0.00365246
0.00350827
0.00337451
0.00325237
0.00314305
0.00304748
0.0029664
0.00290051
0.00285045
0.00281674
0.00279979
0.00279979
0.00281674
0.00285046
0.00290052
0.00296638
0.00304746
0.00314303
0.00325235
0.00337448
0.00350826
0.00365245
0.00380574
0.0039669
0.00413466
0.00430777
0.00448495
0.00466504
0.00484683
0.00502917
0.00521098
0.00539122
0.00556891
0.0057432
0.00591329
0.00607844
0.00623809
0.00639171
0.0065389
0.00667931
0.0068127
0.00693885
0.0070577
0.00716917
0.00727329
0.0073701
0.0074597
0.00754219
0.00761775
0.00768654
0.00774873
0.0078045
0.00785405
0.00789758
0.00793521
0.00796715
0.00799352
0.00801447
0.00803009
0.00804045
0.00804563
0.00918896
0.00918295
0.00917086
0.00915266
0.00912823
0.00909746
0.00906021
0.00901632
0.00896555
0.00890776
0.00884267
0.00877012
0.00868983
0.00860162
0.00850529
0.00840062
0.00828752
0.00816586
0.00803554
0.00789659
0.00774903
0.00759299
0.00742866
0.00725633
0.00707638
0.00688932
0.0066957
0.00649623
0.00629175
0.00608316
0.00587151
0.00565793
0.00544362
0.00522989
0.00501811
0.00480964
0.00460591
0.00440837
0.00421854
0.00403787
0.00386785
0.00371
0.00356586
0.00343685
0.0033241
0.0032284
0.00315058
0.00309143
0.00305158
0.00303152
0.00303153
0.00305158
0.00309142
0.00315058
0.0032284
0.0033241
0.00343683
0.00356584
0.00370997
0.00386783
0.00403784
0.0042185
0.00440833
0.00460587
0.0048096
0.00501809
0.00522987
0.00544359
0.00565789
0.00587148
0.00608317
0.00629174
0.00649622
0.00669569
0.00688931
0.00707637
0.00725633
0.00742866
0.00759299
0.00774904
0.0078966
0.00803556
0.00816586
0.00828754
0.00840065
0.00850528
0.00860162
0.00868983
0.00877011
0.00884266
0.00890775
0.00896557
0.00901632
0.00906022
0.00909746
0.00912823
0.00915264
0.00917086
0.00918295
0.00918898
0.0102928
0.0102859
0.010272
0.0102511
0.0102231
0.0101879
0.0101452
0.0100948
0.0100366
0.00997028
0.00989563
0.00981236
0.00972021
0.00961894
0.0095083
0.00938812
0.00925819
0.00911835
0.00896855
0.00880874
0.00863898
0.0084594
0.00827021
0.00807173
0.00786436
0.00764869
0.00742537
0.0071952
0.0069591
0.00671814
0.00647352
0.00622655
0.00597866
0.00573132
0.00548614
0.00524468
0.0050086
0.00477957
0.0045594
0.00434981
0.0041524
0.00396894
0.00380135
0.00365135
0.00352041
0.00340915
0.0033186
0.00324972
0.00320332
0.00317999
0.00318001
0.00320333
0.00324971
0.00331857
0.00340915
0.0035204
0.00365135
0.0038013
0.00396892
0.00415236
0.00434978
0.00455938
0.00477954
0.00500856
0.00524463
0.00548607
0.00573128
0.00597862
0.00622653
0.0064735
0.00671813
0.00695909
0.00719517
0.00742534
0.00764867
0.00786435
0.00807171
0.00827021
0.00845943
0.00863899
0.00880876
0.00896856
0.00911837
0.0092582
0.00938814
0.00950834
0.00961896
0.00972021
0.00981236
0.00989562
0.00997029
0.0100366
0.0100948
0.0101452
0.0101879
0.0102231
0.0102511
0.010272
0.0102859
0.0102928
0.0113524
0.0113446
0.0113289
0.0113053
0.0112736
0.0112337
0.0111853
0.0111284
0.0110624
0.0109874
0.0109028
0.0108085
0.0107041
0.0105894
0.010464
0.0103277
0.0101803
0.0100216
0.00985162
0.00967017
0.00947736
0.00927327
0.00905818
0.00883243
0.00859643
0.00835087
0.00809646
0.00783409
0.00756482
0.00728987
0.00701057
0.00672843
0.00644508
0.00616226
0.00588174
0.00560537
0.00533503
0.00507261
0.0048202
0.00457992
0.00435339
0.00414266
0.00394998
0.00377751
0.00362704
0.00349904
0.00339483
0.00331562
0.00326232
0.00323552
0.0032355
0.00326229
0.00331558
0.00339479
0.003499
0.00362701
0.0037775
0.00394998
0.00414264
0.00435336
0.00457989
0.00482016
0.00507256
0.00533499
0.00560534
0.00588171
0.00616223
0.00644506
0.00672842
0.00701055
0.00728984
0.00756481
0.00783408
0.00809644
0.00835086
0.00859643
0.00883241
0.00905818
0.00927327
0.00947737
0.00967018
0.00985163
0.0100217
0.0101803
0.0103277
0.010464
0.0105894
0.0107041
0.0108085
0.0109028
0.0109874
0.0110625
0.0111284
0.0111853
0.0112337
0.0112736
0.0113053
0.0113289
0.0113446
0.0113524
0.0123633
0.0123546
0.012337
0.0123106
0.0122751
0.0122304
0.0121763
0.0121125
0.0120387
0.0119546
0.0118598
0.0117541
0.011637
0.0115083
0.0113676
0.0112147
0.0110492
0.0108711
0.01068
0.0104761
0.0102593
0.0100297
0.00978758
0.00953332
0.00926746
0.0089906
0.0087036
0.00840744
0.00810332
0.00779257
0.0074767
0.00715746
0.00683666
0.00651622
0.00619826
0.00588482
0.00557811
0.00528004
0.00499321
0.00472029
0.00446278
0.00422318
0.00400389
0.00380713
0.00363481
0.00348861
0.00336995
0.00327994
0.00321947
0.00318908
0.00318908
0.00321945
0.00327992
0.00336993
0.0034886
0.00363481
0.00380712
0.00400388
0.00422316
0.00446276
0.00472027
0.00499319
0.00528001
0.00557808
0.00588481
0.00619825
0.0065162
0.00683661
0.00715745
0.00747671
0.00779257
0.00810331
0.00840745
0.0087036
0.0089906
0.00926746
0.00953333
0.00978758
0.0100297
0.0102593
0.0104761
0.0106801
0.0108711
0.0110493
0.0112147
0.0113677
0.0115083
0.011637
0.0117541
0.0118598
0.0119546
0.0120387
0.0121125
0.0121763
0.0122305
0.0122751
0.0123106
0.012337
0.0123546
0.0123634
0.0133215
0.0133118
0.0132923
0.0132629
0.0132236
0.013174
0.0131139
0.013043
0.012961
0.0128676
0.0127623
0.0126448
0.0125147
0.0123716
0.0122151
0.0120449
0.0118607
0.0116623
0.0114495
0.0112221
0.0109803
0.0107241
0.0104539
0.0101699
0.0098727
0.0095631
0.00924191
0.00891031
0.00856952
0.00822107
0.00786663
0.00750813
0.00714766
0.00678738
0.00642967
0.00607671
0.00573127
0.00539519
0.00507145
0.00476306
0.00447279
0.00420325
0.00395676
0.00373534
0.00354097
0.00337647
0.0032433
0.00314247
0.00307482
0.00304087
0.00304086
0.00307481
0.00314246
0.00324328
0.00337645
0.00354094
0.00373532
0.00395672
0.00420323
0.00447278
0.00476304
0.00507144
0.00539519
0.00573127
0.00607672
0.00642966
0.00678737
0.00714766
0.00750813
0.00786663
0.00822106
0.00856953
0.00891031
0.00924193
0.00956311
0.00987271
0.0101699
0.0104539
0.0107241
0.0109803
0.0112221
0.0114495
0.0116623
0.0118607
0.0120449
0.0122151
0.0123716
0.0125147
0.0126448
0.0127623
0.0128676
0.0129611
0.013043
0.0131139
0.013174
0.0132236
0.013263
0.0132923
0.0133118
0.0133215
0.0142228
0.0142121
0.0141907
0.0141584
0.014115
0.0140603
0.0139941
0.013916
0.0138256
0.0137226
0.0136065
0.0134768
0.0133333
0.0131753
0.0130024
0.0128144
0.0126108
0.0123914
0.0121559
0.0119043
0.0116365
0.0113526
0.011053
0.0107379
0.010408
0.0100641
0.0097071
0.00933825
0.0089589
0.00857071
0.00817563
0.00777564
0.00737322
0.00697059
0.00657067
0.00617548
0.00578827
0.00541229
0.00505064
0.0047063
0.00438324
0.00408404
0.00381098
0.00356619
0.00335182
0.00317035
0.00302344
0.00291231
0.00283775
0.00280035
0.00280034
0.00283775
0.00291231
0.00302344
0.00317033
0.00335182
0.00356617
0.00381097
0.00408402
0.00438322
0.0047063
0.00505064
0.00541231
0.00578828
0.00617548
0.00657067
0.00697058
0.0073732
0.00777564
0.00817563
0.00857073
0.00895891
0.00933824
0.0097071
0.0100641
0.010408
0.0107379
0.011053
0.0113526
0.0116365
0.0119043
0.0121559
0.0123914
0.0126108
0.0128144
0.0130024
0.0131753
0.0133333
0.0134769
0.0136065
0.0137226
0.0138256
0.013916
0.0139941
0.0140604
0.014115
0.0141584
0.0141907
0.0142122
0.0142229
0.0150638
0.0150521
0.0150286
0.0149933
0.0149458
0.0148859
0.0148134
0.0147279
0.0146289
0.014516
0.0143887
0.0142466
0.0140891
0.0139158
0.0137261
0.0135197
0.013296
0.0130549
0.0127959
0.0125191
0.0122243
0.0119116
0.0115813
0.0112338
0.0108698
0.0104899
0.0100954
0.00968743
0.00926761
0.00883763
0.00839969
0.00795592
0.00750921
0.00706173
0.00661682
0.00617789
0.00574844
0.00533293
0.0049346
0.00455661
0.00420255
0.00387524
0.00357709
0.00331041
0.00307737
0.00288017
0.00272057
0.00259983
0.00251887
0.00247823
0.00247825
0.00251886
0.00259982
0.00272055
0.00288016
0.00307733
0.00331038
0.00357707
0.00387522
0.00420254
0.00455661
0.00493458
0.00533293
0.00574844
0.0061779
0.00661681
0.00706175
0.00750922
0.00795591
0.00839968
0.00883765
0.00926762
0.00968744
0.0100954
0.0104899
0.0108698
0.0112338
0.0115813
0.0119116
0.0122243
0.0125191
0.0127959
0.0130549
0.013296
0.0135197
0.0137261
0.0139158
0.0140892
0.0142466
0.0143888
0.014516
0.0146289
0.0147279
0.0148135
0.014886
0.0149458
0.0149933
0.0150287
0.0150522
0.0150639
0.0158411
0.0158283
0.0158028
0.0157643
0.0157126
0.0156475
0.0155685
0.0154754
0.0153675
0.0152445
0.0151059
0.0149509
0.0147792
0.0145901
0.0143831
0.0141576
0.0139133
0.0136497
0.0133665
0.0130635
0.0127406
0.0123981
0.0120359
0.0116547
0.0112549
0.0108375
0.0104036
0.00995471
0.00949242
0.00901848
0.00853554
0.00804567
0.00755223
0.00705879
0.00656901
0.0060877
0.00561864
0.00516597
0.0047332
0.00432371
0.0039408
0.00358741
0.0032661
0.00297921
0.00272896
0.00251738
0.0023462
0.00221677
0.00212997
0.00208643
0.00208642
0.00212998
0.00221676
0.0023462
0.00251737
0.00272894
0.00297918
0.00326608
0.0035874
0.00394079
0.00432368
0.00473319
0.00516595
0.00561864
0.0060877
0.00656903
0.00705879
0.00755224
0.00804567
0.00853554
0.00901848
0.00949242
0.00995472
0.0104036
0.0108375
0.0112549
0.0116547
0.0120359
0.0123981
0.0127407
0.0130635
0.0133665
0.0136497
0.0139133
0.0141576
0.0143831
0.0145901
0.0147792
0.014951
0.0151059
0.0152446
0.0153675
0.0154754
0.0155685
0.0156475
0.0157126
0.0157643
0.0158028
0.0158284
0.0158411
0.0165515
0.0165378
0.0165101
0.0164684
0.0164125
0.0163419
0.0162564
0.0161555
0.0160387
0.0159054
0.015755
0.015587
0.0154006
0.0151954
0.0149705
0.0147256
0.01446
0.0141732
0.013865
0.013535
0.0131831
0.0128095
0.0124143
0.011998
0.0115611
0.0111045
0.0106294
0.0101375
0.00963078
0.00911068
0.0085804
0.00804356
0.00750384
0.00696621
0.00643481
0.00591412
0.00540826
0.00492128
0.00445684
0.00401841
0.00360919
0.00323217
0.00288995
0.00258487
0.00231913
0.00209467
0.00191321
0.00177606
0.00168412
0.001638
0.001638
0.0016841
0.00177605
0.00191323
0.00209469
0.00231913
0.00258486
0.00288992
0.00323215
0.00360918
0.00401839
0.00445682
0.00492124
0.00540824
0.00591412
0.00643481
0.00696623
0.00750382
0.00804354
0.00858041
0.00911068
0.00963079
0.0101375
0.0106294
0.0111044
0.0115611
0.011998
0.0124143
0.0128095
0.0131832
0.013535
0.013865
0.0141732
0.01446
0.0147256
0.0149706
0.0151954
0.0154007
0.015587
0.015755
0.0159054
0.0160387
0.0161555
0.0162565
0.016342
0.0164125
0.0164684
0.0165101
0.0165378
0.0165516
0.0171925
0.0171777
0.0171479
0.017103
0.0170427
0.0169667
0.0168745
0.0167658
0.0166398
0.016496
0.0163337
0.0161524
0.0159511
0.0157293
0.0154863
0.0152214
0.014934
0.0146235
0.0142895
0.0139316
0.0135499
0.0131442
0.0127147
0.0122619
0.0117865
0.0112891
0.0107709
0.0102341
0.00968052
0.00911334
0.0085363
0.00795441
0.00737192
0.00679356
0.00622382
0.00566713
0.00512775
0.00460971
0.00411681
0.00365246
0.0032199
0.00282203
0.0024615
0.00214059
0.0018614
0.00162583
0.00143553
0.0012918
0.00119551
0.00114723
0.00114724
0.00119551
0.00129179
0.00143553
0.00162583
0.00186141
0.00214059
0.00246147
0.00282201
0.00321987
0.00365243
0.00411678
0.0046097
0.00512773
0.00566711
0.0062238
0.00679356
0.00737192
0.0079544
0.00853628
0.00911332
0.00968051
0.0102341
0.0107708
0.0112891
0.0117864
0.0122619
0.0127147
0.0131442
0.0135499
0.0139316
0.0142894
0.0146235
0.014934
0.0152214
0.0154863
0.0157293
0.0159511
0.0161524
0.0163338
0.016496
0.0166398
0.0167658
0.0168746
0.0169667
0.0170427
0.017103
0.0171479
0.0171777
0.0171925
0.0177616
0.0177457
0.0177138
0.0176656
0.017601
0.0175195
0.0174206
0.0173039
0.0171687
0.0170143
0.01684
0.0166451
0.0164287
0.0161902
0.0159286
0.0156433
0.0153336
0.0149989
0.0146385
0.0142521
0.0138396
0.0134008
0.012936
0.0124455
0.0119301
0.0113904
0.0108276
0.0102442
0.00964386
0.00903143
0.00841114
0.00778785
0.00716615
0.00655083
0.00594643
0.00535752
0.00478834
0.00424297
0.00372517
0.00323842
0.00278587
0.00237037
0.0019945
0.0016605
0.00137027
0.00112558
0.000928115
0.000779133
0.000679426
0.000629473
0.000629451
0.000679426
0.000779133
0.000928105
0.00112555
0.00137025
0.00166049
0.00199451
0.00237035
0.00278585
0.0032384
0.00372513
0.00424295
0.00478832
0.00535749
0.00594644
0.0065508
0.00716615
0.00778783
0.00841112
0.0090314
0.00964385
0.0102442
0.0108276
0.0113904
0.0119301
0.0124455
0.0129359
0.0134008
0.0138395
0.0142521
0.0146385
0.0149988
0.0153336
0.0156434
0.0159286
0.0161902
0.0164287
0.0166451
0.01684
0.0170143
0.0171687
0.0173039
0.0174207
0.0175195
0.017601
0.0176657
0.0177138
0.0177457
0.0177617
0.0182569
0.0182399
0.0182059
0.0181544
0.0180854
0.0179984
0.0178928
0.0177681
0.0176235
0.0174585
0.0172721
0.0170635
0.0168319
0.0165764
0.0162961
0.0159902
0.0156579
0.0152984
0.0149112
0.0144957
0.0140516
0.0135788
0.0130776
0.0125482
0.0119914
0.0114077
0.0108001
0.0101718
0.00952821
0.00887416
0.00821436
0.0075536
0.00689672
0.00624852
0.00561365
0.00499668
0.00440187
0.00383329
0.00329468
0.00278949
0.00232076
0.00189123
0.00150346
0.00115949
0.000860967
0.000609483
0.000406851
0.000254163
0.000152074
0.000100956
0.000100945
0.000152064
0.000254163
0.000406841
0.000609483
0.000860967
0.00115947
0.00150346
0.00189123
0.00232076
0.00278949
0.00329467
0.00383327
0.00440186
0.00499667
0.00561365
0.00624851
0.00689671
0.00755359
0.00821433
0.00887416
0.0095282
0.0101718
0.0108001
0.0114077
0.0119914
0.0125482
0.0130776
0.0135788
0.0140516
0.0144956
0.0149111
0.0152984
0.0156579
0.0159902
0.0162961
0.0165764
0.0168319
0.0170635
0.0172721
0.0174585
0.0176236
0.0177681
0.0178928
0.0179984
0.0180855
0.0181545
0.0182059
0.01824
0.018257
0.0186767
0.0186586
0.0186224
0.0185678
0.0184944
0.0184019
0.0182895
0.0181568
0.018003
0.0178273
0.0176288
0.0174065
0.0171596
0.0168871
0.016588
0.0162613
0.0159061
0.0155217
0.0151072
0.0146621
0.0141859
0.0136786
0.01314
0.0125707
0.0119711
0.011344
0.0106938
0.0100248
0.00934206
0.00865066
0.00795558
0.00726176
0.00657418
0.00589766
0.00523694
0.00459652
0.00398074
0.00339356
0.00283868
0.00231952
0.00183888
0.0013993
0.00100345
0.000653084
0.00034957
9.40312e-05
-0.000111438
-0.000266074
-0.000369402
-0.000421166
-0.000421166
-0.000369412
-0.000266074
-0.000111438
9.40312e-05
0.00034957
0.000653105
0.00100345
0.00139931
0.00183889
0.00231953
0.00283868
0.00339355
0.00398073
0.00459652
0.00523694
0.00589767
0.00657418
0.00726179
0.0079556
0.00865068
0.00934207
0.0100248
0.0106938
0.0113439
0.0119711
0.0125707
0.01314
0.0136785
0.0141859
0.0146621
0.0151072
0.0155217
0.0159061
0.0162613
0.016588
0.0168871
0.0171596
0.0174065
0.0176288
0.0178273
0.0180031
0.0181569
0.0182896
0.0184019
0.0184945
0.0185678
0.0186225
0.0186587
0.0186767
0.0190196
0.0190005
0.0189622
0.0189044
0.0188267
0.0187287
0.0186097
0.0184691
0.0183061
0.0181198
0.0179092
0.0176734
0.0174112
0.0171217
0.0168038
0.0164563
0.0160783
0.0156688
0.015227
0.014752
0.0142434
0.0137009
0.0131246
0.0125146
0.0118737
0.0112065
0.0105177
0.00981207
0.00909456
0.00837041
0.00764474
0.00692272
0.00620932
0.0055095
0.00482797
0.00416927
0.0035376
0.00293694
0.00237079
0.00184264
0.00135492
0.000909745
0.000509967
0.000157093
-0.000147659
-0.000403262
-0.000608826
-0.000763632
-0.00086715
-0.00091901
-0.000918988
-0.000867139
-0.000763632
-0.000608826
-0.000403262
-0.000147659
0.000157103
0.000509977
0.000909777
0.00135496
0.00184266
0.00237081
0.00293696
0.0035376
0.00416925
0.00482794
0.00550948
0.00620934
0.00692273
0.00764477
0.00837042
0.00909456
0.00981207
0.0105177
0.0112065
0.0118737
0.0125146
0.0131246
0.0137009
0.0142434
0.014752
0.015227
0.0156688
0.0160783
0.0164563
0.0168038
0.0171217
0.0174113
0.0176734
0.0179093
0.0181198
0.0183062
0.0184692
0.0186098
0.0187287
0.0188267
0.0189044
0.0189622
0.0190006
0.0190197
0.0192848
0.0192647
0.0192243
0.0191633
0.0190814
0.0189781
0.0188526
0.0187043
0.0185323
0.0183355
0.0181131
0.0178638
0.0175866
0.0172803
0.0169437
0.0165756
0.0161749
0.0157404
0.0152713
0.0147665
0.0142254
0.0136476
0.0130332
0.0123846
0.0117063
0.0110033
0.0102804
0.00954255
0.00879501
0.00804301
0.00729191
0.00654687
0.00581306
0.00509537
0.00439857
0.00372723
0.00308537
0.00247696
0.00190503
0.00137328
0.000883868
0.000438594
3.91329e-05
-0.000313
-0.000616428
-0.000870093
-0.00107419
-0.00122804
-0.00133096
-0.00138254
-0.00138253
-0.00133097
-0.00122804
-0.00107421
-0.000870093
-0.000616428
-0.000313
3.91541e-05
0.000438636
0.000883889
0.00137331
0.00190507
0.00247697
0.00308538
0.00372724
0.00439859
0.00509536
0.00581305
0.00654688
0.00729191
0.00804301
0.00879501
0.00954255
0.0102804
0.0110033
0.0117063
0.0123846
0.0130332
0.0136476
0.0142254
0.0147665
0.0152713
0.0157404
0.0161749
0.0165756
0.0169437
0.0172803
0.0175867
0.0178639
0.0181131
0.0183356
0.0185323
0.0187044
0.0188527
0.0189782
0.0190815
0.0191634
0.0192243
0.0192647
0.0192849
0.0194716
0.0194505
0.0194081
0.0193441
0.0192582
0.0191497
0.0190179
0.0188621
0.0186812
0.0184744
0.0182404
0.017978
0.0176861
0.0173633
0.0170083
0.0166199
0.0161968
0.0157377
0.0152415
0.0147071
0.0141337
0.0135208
0.0128706
0.0121876
0.0114765
0.0107423
0.00999013
0.00922509
0.00845259
0.00767809
0.00690699
0.00614465
0.00539622
0.00466659
0.00396059
0.00328281
0.00263693
0.00202711
0.00145601
0.00092586
0.00043888
-3.14461e-06
-0.000399651
-0.000749137
-0.00105026
-0.00130208
-0.00150448
-0.00165692
-0.0017589
-0.00180997
-0.00180998
-0.00175889
-0.00165692
-0.00150447
-0.0013021
-0.00105027
-0.000749127
-0.000399651
-3.1552e-06
0.000438869
0.000925871
0.00145599
0.00202712
0.00263696
0.00328282
0.00396061
0.00466662
0.00539624
0.00614466
0.00690699
0.00767809
0.00845261
0.00922509
0.00999014
0.0107424
0.0114765
0.0121876
0.0128707
0.0135208
0.0141337
0.0147071
0.0152415
0.0157377
0.0161968
0.01662
0.0170083
0.0173633
0.0176861
0.017978
0.0182404
0.0184744
0.0186813
0.0188621
0.0190179
0.0191497
0.0192582
0.0193441
0.0194081
0.0194505
0.0194716
0.0195797
0.0195577
0.0195134
0.0194466
0.0193567
0.0192433
0.0191055
0.0189425
0.0187532
0.0185366
0.0182915
0.0180165
0.0177103
0.0173715
0.0169987
0.0165905
0.0161455
0.0156623
0.0151396
0.0145761
0.0139707
0.0133252
0.0126438
0.0119311
0.011192
0.0104317
0.00965532
0.00886842
0.00807648
0.0072851
0.00649984
0.00572625
0.0049695
0.00423438
0.00352564
0.00284815
0.00220517
0.00159945
0.00103345
0.000508273
2.58874e-05
-0.000411997
-0.000804438
-0.00115021
-0.00144818
-0.0016975
-0.00189773
-0.00204844
-0.00214921
-0.00219968
-0.00219968
-0.00214921
-0.00204843
-0.00189771
-0.00169748
-0.00144816
-0.00115021
-0.000804427
-0.000411997
2.58769e-05
0.000508252
0.00103345
0.00159946
0.00220517
0.00284816
0.00352563
0.0042344
0.00496952
0.00572625
0.00649987
0.00728512
0.00807651
0.00886845
0.00965534
0.0104317
0.011192
0.0119311
0.0126438
0.0133252
0.0139707
0.0145761
0.0151396
0.0156623
0.0161455
0.0165905
0.0169988
0.0173715
0.0177103
0.0180165
0.0182915
0.0185366
0.0187532
0.0189425
0.0191055
0.0192433
0.0193568
0.0194466
0.0195134
0.0195577
0.0195798
0.0196094
0.0195864
0.0195404
0.0194708
0.0193773
0.0192593
0.0191158
0.018946
0.0187488
0.018523
0.0182672
0.0179802
0.0176605
0.0173064
0.0169165
0.0164893
0.016023
0.0155164
0.014968
0.0143759
0.0137412
0.0130678
0.0123599
0.0116225
0.0108605
0.0100793
0.00928425
0.0084811
0.00767552
0.00687325
0.00608002
0.00530151
0.00454319
0.00380949
0.00310529
0.00243395
0.00179831
0.00119979
0.000640495
0.000121888
-0.000354346
-0.000786661
-0.00117393
-0.00151506
-0.00180904
-0.00205508
-0.00225264
-0.00240127
-0.00250062
-0.00255035
-0.00255036
-0.00250059
-0.00240126
-0.00225264
-0.00205506
-0.00180902
-0.00151506
-0.00117392
-0.000786639
-0.000354314
0.000121909
0.000640516
0.0011998
0.00179831
0.00243395
0.0031053
0.0038095
0.00454321
0.00530153
0.00608004
0.00687326
0.00767554
0.00848113
0.00928426
0.0100793
0.0108605
0.0116225
0.01236
0.0130678
0.0137412
0.0143759
0.014968
0.0155164
0.016023
0.0164892
0.0169165
0.0173064
0.0176605
0.0179802
0.0182673
0.018523
0.0187488
0.018946
0.0191158
0.0192593
0.0193774
0.0194709
0.0195404
0.0195865
0.0196094
0.019561
0.0195372
0.0194895
0.0194175
0.0193206
0.0191982
0.0190495
0.0188734
0.0186688
0.0184344
0.0181688
0.0178706
0.0175381
0.0171697
0.0167637
0.0163184
0.015832
0.0153028
0.0147295
0.0141115
0.0134521
0.0127555
0.0120262
0.0112691
0.0104895
0.00969286
0.00888489
0.00807139
0.00725825
0.00645137
0.00565663
0.00487983
0.00412672
0.00340131
0.00270686
0.0020452
0.00141876
0.000829224
0.000278399
-0.000232087
-0.000700761
-0.00112619
-0.00150722
-0.00184278
-0.00213195
-0.00237399
-0.00256833
-0.0027145
-0.00281216
-0.00286107
-0.00286104
-0.00281215
-0.00271449
-0.0025683
-0.00237398
-0.00213193
-0.00184276
-0.00150721
-0.00112618
-0.00070074
-0.000232066
0.00027843
0.000829245
0.00141876
0.0020452
0.00270687
0.0034013
0.00412672
0.00487984
0.00565664
0.00645141
0.00725827
0.00807142
0.00888491
0.00969288
0.0104895
0.0112691
0.0120262
0.0127555
0.0134522
0.0141115
0.0147295
0.0153028
0.015832
0.0163184
0.0167637
0.0171697
0.0175381
0.0178706
0.0181689
0.0184345
0.0186688
0.0188735
0.0190495
0.0191983
0.0193207
0.0194175
0.0194895
0.0195373
0.019561
0.0194352
0.0194107
0.0193615
0.0192873
0.0191874
0.0190612
0.0189077
0.018726
0.0185146
0.0182724
0.0179979
0.0176893
0.0173451
0.0169635
0.0165426
0.0160807
0.0155757
0.0150257
0.0144295
0.0137898
0.0131103
0.0123953
0.0116496
0.0108781
0.0100863
0.00927994
0.00846486
0.00764707
0.0068327
0.00602783
0.00523849
0.00447065
0.00372847
0.00301528
0.00233278
0.00168282
0.00106754
0.000488717
-5.19231e-05
-0.00055288
-0.00101265
-0.00142996
-0.00180366
-0.00213273
-0.00241629
-0.00265364
-0.0028442
-0.00298755
-0.0030833
-0.00313121
-0.00313121
-0.00308328
-0.00298752
-0.00284419
-0.00265362
-0.00241629
-0.00213272
-0.00180364
-0.00142994
-0.00101262
-0.000552848
-5.19125e-05
0.000488727
0.00106755
0.00168282
0.00233275
0.00301527
0.00372847
0.00447066
0.0052385
0.00602785
0.00683272
0.00764709
0.00846488
0.00927997
0.0100863
0.0108781
0.0116496
0.0123953
0.0131103
0.0137898
0.0144295
0.0150257
0.0155757
0.0160807
0.0165426
0.0169635
0.0173451
0.0176893
0.0179979
0.0182725
0.0185147
0.018726
0.0189078
0.0190612
0.0191875
0.0192873
0.0193616
0.0194108
0.0194353
0.0192333
0.0192081
0.0191577
0.0190815
0.018979
0.0188494
0.0186918
0.018505
0.0182878
0.0180388
0.0177562
0.0174385
0.0170838
0.0166903
0.016256
0.0157791
0.0152575
0.0146887
0.0140738
0.0134169
0.012722
0.0119937
0.0112367
0.0104562
0.00965782
0.00884745
0.00803117
0.00721529
0.00640614
0.00561004
0.00483314
0.00407969
0.003352
0.00265288
0.00198415
0.00134772
0.000745421
0.000178999
-0.000349952
-0.000839907
-0.00128951
-0.00169753
-0.00206285
-0.00238454