/*--------------------------------*- C++ -*----------------------------------*\
  =========                 |
  \\      /  F ield         | OpenFOAM: The Open Source CFD Toolbox
   \\    /   O peration     | Website:  https://openfoam.org
    \\  /    A nd           | Version:  7
     \\/     M anipulation  |
\*---------------------------------------------------------------------------*/
FoamFile
{
    version     2.0;
    format      ascii;
    class       volScalarField;
    location    "0.035";
    object      gradTx;
}
// * * * * * * * * * * * * * * * * * * * * * * * * * * * * * * * * * * * * * //

dimensions      [0 -1 0 1 0 0 0];

internalField   nonuniform List<scalar> 
10000
(
0.000638059
0.0019114
0.00317646
0.00442778
0.00565992
0.00686761
0.00804564
0.00918899
0.0102928
0.0113524
0.0123634
0.0133215
0.0142229
0.0150638
0.0158411
0.0165516
0.0171925
0.0177617
0.0182569
0.0186767
0.0190196
0.0192848
0.0194716
0.0195798
0.0196094
0.019561
0.0194353
0.0192333
0.0189565
0.0186064
0.0181852
0.0176948
0.0171378
0.0165168
0.0158346
0.0150941
0.0142988
0.0134517
0.0125564
0.0116164
0.0106354
0.00961701
0.00856513
0.00748354
0.00637616
0.00524684
0.00409957
0.00293833
0.00176708
0.000589821
-0.00058944
-0.00176669
-0.00293793
-0.00409919
-0.00524647
-0.00637578
-0.0074832
-0.00856478
-0.00961667
-0.010635
-0.011616
-0.012556
-0.0134514
-0.0142985
-0.0150939
-0.0158343
-0.0165165
-0.0171375
-0.0176945
-0.0181849
-0.0186062
-0.0189562
-0.019233
-0.019435
-0.0195608
-0.0196092
-0.0195796
-0.0194714
-0.0192846
-0.0190195
-0.0186765
-0.0182568
-0.0177615
-0.0171924
-0.0165514
-0.0158409
-0.0150637
-0.0142228
-0.0133214
-0.0123633
-0.0113523
-0.0102927
-0.00918891
-0.00804558
-0.00686756
-0.0056599
-0.00442777
-0.00317646
-0.00191141
-0.000638049
0.000637678
0.00191024
0.00317454
0.00442506
0.0056564
0.00686328
0.00804046
0.00918297
0.0102859
0.0113446
0.0123546
0.0133118
0.0142122
0.0150521
0.0158284
0.0165378
0.0171777
0.0177458
0.01824
0.0186587
0.0190005
0.0192647
0.0194505
0.0195577
0.0195865
0.0195372
0.0194107
0.0192081
0.0189308
0.0185804
0.0181588
0.0176684
0.0171114
0.0164905
0.0158087
0.0150688
0.0142741
0.013428
0.0125337
0.011595
0.0106154
0.00959865
0.00854851
0.00746885
0.00636347
0.00523632
0.00409128
0.00293234
0.00176346
0.000588614
-0.000588222
-0.00176308
-0.00293195
-0.00409089
-0.00523594
-0.00636312
-0.0074685
-0.00854818
-0.00959829
-0.010615
-0.0115946
-0.0125334
-0.0134276
-0.0142738
-0.0150685
-0.0158084
-0.0164902
-0.0171111
-0.0176681
-0.0181585
-0.0185801
-0.0189305
-0.0192079
-0.0194105
-0.019537
-0.0195862
-0.0195575
-0.0194503
-0.0192645
-0.0190004
-0.0186585
-0.0182398
-0.0177456
-0.0171775
-0.0165376
-0.0158282
-0.015052
-0.0142121
-0.0133117
-0.0123545
-0.0113445
-0.0102858
-0.00918289
-0.00804041
-0.00686324
-0.00565638
-0.00442505
-0.00317453
-0.00191024
-0.000637678
0.000636895
0.00190794
0.00317065
0.00441961
0.00564936
0.00685459
0.00803009
0.00917088
0.010272
0.0113289
0.0123371
0.0132923
0.0141907
0.0150287
0.0158028
0.0165101
0.0171479
0.0177138
0.0182059
0.0186224
0.0189622
0.0192243
0.0194081
0.0195134
0.0195404
0.0194895
0.0193616
0.0191577
0.0188793
0.018528
0.0181059
0.0176152
0.0170583
0.0164378
0.0157567
0.0150179
0.0142247
0.0133803
0.0124882
0.011552
0.0105753
0.00956172
0.00851515
0.00743929
0.006338
0.00521514
0.0040746
0.00292032
0.0017562
0.000586179
-0.000585797
-0.00175581
-0.00291992
-0.00407423
-0.00521478
-0.00633764
-0.00743893
-0.0085148
-0.0095614
-0.0105749
-0.0115516
-0.0124878
-0.0133799
-0.0142244
-0.0150176
-0.0157564
-0.0164376
-0.017058
-0.017615
-0.0181057
-0.0185278
-0.018879
-0.0191574
-0.0193613
-0.0194893
-0.0195402
-0.0195132
-0.0194079
-0.0192241
-0.018962
-0.0186223
-0.0182057
-0.0177137
-0.0171477
-0.0165099
-0.0158027
-0.0150285
-0.0141906
-0.0132922
-0.012337
-0.0113288
-0.0102719
-0.0091708
-0.00803004
-0.00685453
-0.00564934
-0.00441961
-0.00317065
-0.00190793
-0.000636905
0.000635751
0.00190444
0.00316482
0.0044114
0.00563873
0.0068415
0.00801449
0.00915267
0.0102512
0.0113053
0.0123106
0.013263
0.0141584
0.0149933
0.0157643
0.0164684
0.017103
0.0176657
0.0181545
0.0185678
0.0189044
0.0191633
0.0193441
0.0194466
0.0194709
0.0194175
0.0192873
0.0190815
0.0188015
0.018449
0.0180261
0.017535
0.0169781
0.0163582
0.0156782
0.014941
0.0141499
0.0133082
0.0124194
0.011487
0.0105146
0.00950589
0.00846464
0.00739459
0.00629946
0.0051831
0.00404938
0.0029021
0.00174519
0.000582505
-0.000582123
-0.00174482
-0.00290173
-0.00404901
-0.00518274
-0.0062991
-0.00739423
-0.00846429
-0.00950555
-0.0105142
-0.0114866
-0.012419
-0.0133079
-0.0141496
-0.0149407
-0.0156779
-0.016358
-0.0169779
-0.0175347
-0.0180258
-0.0184487
-0.0188012
-0.0190812
-0.0192871
-0.0194172
-0.0194706
-0.0194464
-0.0193439
-0.0191632
-0.0189042
-0.0185676
-0.0181543
-0.0176655
-0.0171028
-0.0164683
-0.0157642
-0.0149932
-0.0141583
-0.0132628
-0.0123105
-0.0113052
-0.0102511
-0.0091526
-0.00801444
-0.00684144
-0.0056387
-0.00441138
-0.00316483
-0.00190444
-0.000635741
0.000634184
0.00189977
0.003157
0.00440039
0.00562449
0.00682394
0.00799355
0.00912824
0.0102231
0.0112736
0.0122751
0.0132236
0.014115
0.0149458
0.0157126
0.0164125
0.0170427
0.017601
0.0180855
0.0184944
0.0188267
0.0190815
0.0192582
0.0193567
0.0193774
0.0193206
0.0191874
0.018979
0.0186968
0.0183426
0.0179186
0.0174269
0.0168702
0.016251
0.0155724
0.0148374
0.0140491
0.013211
0.0123266
0.0113992
0.0104327
0.00943057
0.00839653
0.00733426
0.00624747
0.0051399
0.00401531
0.00287753
0.00173036
0.000577528
-0.000577158
-0.00172998
-0.00287718
-0.00401494
-0.00513952
-0.0062471
-0.00733391
-0.00839618
-0.00943021
-0.0104324
-0.0113989
-0.0123262
-0.0132107
-0.0140488
-0.014837
-0.0155721
-0.0162507
-0.0168699
-0.0174266
-0.0179183
-0.0183424
-0.0186965
-0.0189787
-0.0191872
-0.0193204
-0.0193771
-0.0193565
-0.019258
-0.0190813
-0.0188265
-0.0184942
-0.0180853
-0.0176009
-0.0170426
-0.0164123
-0.0157125
-0.0149457
-0.0141149
-0.0132235
-0.012275
-0.0112735
-0.0102231
-0.00912818
-0.00799348
-0.00682389
-0.00562445
-0.00440037
-0.003157
-0.00189977
-0.000634184
0.000632225
0.00189386
0.00314713
0.00438654
0.00560654
0.00680183
0.00796717
0.00909746
0.0101879
0.0112337
0.0122305
0.013174
0.0140604
0.014886
0.0156475
0.016342
0.0169667
0.0175195
0.0179984
0.0184019
0.0187287
0.0189781
0.0191497
0.0192433
0.0192593
0.0191983
0.0190612
0.0188494
0.0185644
0.0182081
0.0177826
0.0172902
0.0167335
0.0161153
0.0154384
0.0147061
0.0139214
0.0130879
0.0122089
0.011288
0.0103288
0.00933498
0.00831009
0.00725774
0.0061815
0.00508504
0.00397208
0.00284634
0.0017115
0.000571218
-0.000570847
-0.00171112
-0.00284597
-0.00397172
-0.00508468
-0.00618114
-0.00725736
-0.00830974
-0.00933464
-0.0103285
-0.0112877
-0.0122086
-0.0130876
-0.0139211
-0.0147058
-0.0154381
-0.016115
-0.0167332
-0.0172899
-0.0177823
-0.0182079
-0.0185641
-0.0188492
-0.019061
-0.019198
-0.0192591
-0.0192431
-0.0191495
-0.0189779
-0.0187285
-0.0184017
-0.0179982
-0.0175193
-0.0169666
-0.0163418
-0.0156473
-0.0148858
-0.0140602
-0.0131739
-0.0122304
-0.0112336
-0.0101878
-0.00909741
-0.00796712
-0.00680178
-0.00560649
-0.0043865
-0.00314714
-0.00189387
-0.000632225
0.000629864
0.00188674
0.00313521
0.00436973
0.00558482
0.00677506
0.00793522
0.00906022
0.0101452
0.0111853
0.0121763
0.0131139
0.0139941
0.0148135
0.0155686
0.0162565
0.0168746
0.0174207
0.0178928
0.0182896
0.0186097
0.0188527
0.0190179
0.0191055
0.0191158
0.0190495
0.0189078
0.0186918
0.0184034
0.0180443
0.017617
0.0171237
0.016567
0.0159498
0.0152751
0.014546
0.0137657
0.0129377
0.0120653
0.0111522
0.010202
0.00921822
0.00820448
0.00716424
0.00610088
0.00501799
0.00391919
0.00280815
0.00168841
0.00056351
-0.000563129
-0.00168803
-0.00280777
-0.00391884
-0.00501765
-0.00610052
-0.00716386
-0.00820413
-0.00921787
-0.0102016
-0.0111519
-0.0120649
-0.0129373
-0.0137654
-0.0145457
-0.0152748
-0.0159496
-0.0165668
-0.0171234
-0.0176167
-0.0180441
-0.0184031
-0.0186916
-0.0189075
-0.0190493
-0.0191156
-0.0191053
-0.0190177
-0.0188525
-0.0186096
-0.0182894
-0.0178926
-0.0174205
-0.0168744
-0.0162563
-0.0155684
-0.0148133
-0.013994
-0.0131138
-0.0121762
-0.0111853
-0.0101451
-0.00906016
-0.00793517
-0.00677501
-0.00558475
-0.00436973
-0.00313521
-0.00188673
-0.000629854
0.000627058
0.00187835
0.00312118
0.00434995
0.00555919
0.0067435
0.00789759
0.00901633
0.0100948
0.0111284
0.0121125
0.013043
0.013916
0.0147279
0.0154754
0.0161556
0.0167658
0.0173039
0.0177681
0.0181569
0.0184692
0.0187043
0.0188621
0.0189425
0.018946
0.0188735
0.018726
0.018505
0.0182124
0.0178501
0.0174205
0.0169261
0.0163694
0.0157534
0.0150811
0.0143558
0.0135806
0.012759
0.0118944
0.0109905
0.0100509
0.00907909
0.00807864
0.00705283
0.00600484
0.00493806
0.00385613
0.00276258
0.00166085
0.000554267
-0.000553896
-0.00166046
-0.0027622
-0.00385578
-0.00493774
-0.00600448
-0.00705247
-0.00807829
-0.00907873
-0.0100505
-0.0109902
-0.0118941
-0.0127586
-0.0135803
-0.0143555
-0.0150808
-0.0157531
-0.0163691
-0.0169258
-0.0174203
-0.0178499
-0.0182122
-0.0185048
-0.0187257
-0.0188732
-0.0189458
-0.0189423
-0.0188619
-0.0187041
-0.018469
-0.0181567
-0.0177679
-0.0173038
-0.0167656
-0.0161554
-0.0154752
-0.0147278
-0.0139159
-0.0130429
-0.0121124
-0.0111283
-0.0100947
-0.00901626
-0.00789752
-0.00674346
-0.00555917
-0.00434994
-0.00312115
-0.00187834
-0.000627048
0.00062384
0.00186863
0.00310493
0.0043271
0.00552962
0.00670704
0.00785406
0.00896557
0.0100366
0.0110625
0.0120387
0.012961
0.0138257
0.0146289
0.0153676
0.0160387
0.0166398
0.0171687
0.0176236
0.018003
0.0183062
0.0185323
0.0186812
0.0187532
0.0187488
0.0186689
0.0185147
0.0182879
0.0179903
0.0176241
0.0171918
0.0166958
0.016139
0.0155243
0.0148549
0.0141338
0.0133644
0.0125503
0.0116948
0.0108015
0.0098741
0.00891623
0.00793132
0.00692247
0.00589246
0.00484447
0.00378221
0.00270913
0.00162852
0.000543456
-0.000543065
-0.00162815
-0.00270877
-0.00378185
-0.00484414
-0.0058921
-0.00692211
-0.00793098
-0.00891588
-0.00987376
-0.0108012
-0.0116945
-0.0125499
-0.0133641
-0.0141335
-0.0148546
-0.015524
-0.0161387
-0.0166955
-0.0171915
-0.0176238
-0.01799
-0.0182876
-0.0185144
-0.0186686
-0.0187486
-0.018753
-0.018681
-0.0185321
-0.018306
-0.0180028
-0.0176234
-0.0171685
-0.0166396
-0.0160386
-0.0153674
-0.0146288
-0.0138255
-0.0129609
-0.0120386
-0.0110624
-0.0100365
-0.0089655
-0.00785403
-0.006707
-0.00552959
-0.00432709
-0.00310491
-0.00186861
-0.000623819
0.000620155
0.00185758
0.00308644
0.0043011
0.00549593
0.00666551
0.0078045
0.00890776
0.0099703
0.0109874
0.0119546
0.0128676
0.0137226
0.014516
0.0152446
0.0159054
0.016496
0.0170143
0.0174585
0.0178273
0.0181198
0.0183356
0.0184744
0.0185366
0.018523
0.0184345
0.0182725
0.0180388
0.0177354
0.0173646
0.0169289
0.0164312
0.0158741
0.0152609
0.0145945
0.0138782
0.0131155
0.0123098
0.0114647
0.0105835
0.00967
0.00872803
0.00776106
0.0067719
0.00576264
0.00473626
0.00369668
0.00264731
0.00159113
0.000530941
-0.00053056
-0.00159077
-0.00264696
-0.00369634
-0.0047359
-0.00576229
-0.00677154
-0.00776072
-0.0087277
-0.00966966
-0.0105832
-0.0114643
-0.0123095
-0.0131152
-0.0138779
-0.0145942
-0.0152606
-0.0158739
-0.0164309
-0.0169287
-0.0173643
-0.0177351
-0.0180385
-0.0182722
-0.0184342
-0.0185227
-0.0185364
-0.0184742
-0.0183354
-0.0181196
-0.0178271
-0.0174583
-0.0170141
-0.0164959
-0.0159053
-0.0152444
-0.0145159
-0.0137225
-0.0128675
-0.0119545
-0.0109873
-0.00997022
-0.00890769
-0.00780446
-0.00666549
-0.00549591
-0.00430106
-0.00308641
-0.00185758
-0.000620145
0.000616005
0.00184514
0.00306563
0.00427181
0.00545804
0.00661879
0.00774872
0.00884269
0.00989564
0.0109029
0.0118598
0.0127623
0.0136065
0.0143887
0.0151059
0.015755
0.0163338
0.01684
0.0172721
0.0176288
0.0179093
0.0181131
0.0182404
0.0182915
0.0182673
0.0181689
0.0179979
0.0177562
0.0174461
0.0170699
0.0166303
0.0161303
0.0155728
0.014961
0.014298
0.0135871
0.0128316
0.0120354
0.0112021
0.0103347
0.00943683
0.00851282
0.00756617
0.00659953
0.00561398
0.00461227
0.0035988
0.00257662
0.00154841
0.000516648
-0.000516298
-0.00154805
-0.00257627
-0.00359844
-0.00461191
-0.00561362
-0.00659916
-0.00756584
-0.00851249
-0.00943651
-0.0103344
-0.0112018
-0.0120351
-0.0128314
-0.0135868
-0.0142977
-0.0149607
-0.0155725
-0.01613
-0.0166301
-0.0170696
-0.0174458
-0.017756
-0.0179977
-0.0181686
-0.018267
-0.0182913
-0.0182402
-0.0181129
-0.0179091
-0.0176286
-0.0172719
-0.0168398
-0.0163336
-0.0157549
-0.0151058
-0.0143886
-0.0136064
-0.0127622
-0.0118597
-0.0109027
-0.00989556
-0.0088426
-0.00774871
-0.00661876
-0.00545799
-0.00427179
-0.00306561
-0.00184512
-0.000616005
0.00061141
0.00183129
0.00304245
0.00423917
0.00541579
0.00656671
0.00768656
0.00877011
0.00981237
0.0108085
0.0117541
0.0126448
0.0134769
0.0142466
0.014951
0.015587
0.0161524
0.0166451
0.0170635
0.0174065
0.0176734
0.0178639
0.0179781
0.0180165
0.0179802
0.0178706
0.0176893
0.0174385
0.0171205
0.016738
0.0162938
0.0157911
0.0152329
0.0146225
0.0139631
0.0132581
0.0125107
0.0117249
0.0109049
0.0100531
0.0091729
0.00826915
0.00734501
0.00640281
0.00544412
0.0044714
0.00348801
0.00249682
0.00150026
0.000500554
-0.000500205
-0.00149992
-0.00249647
-0.00348767
-0.00447103
-0.00544375
-0.00640246
-0.00734468
-0.00826882
-0.00917256
-0.0100528
-0.0109046
-0.0117246
-0.0125104
-0.0132578
-0.0139628
-0.0146222
-0.0152326
-0.0157908
-0.0162936
-0.0167377
-0.0171202
-0.0174382
-0.0176891
-0.0178704
-0.01798
-0.0180163
-0.0179778
-0.0178637
-0.0176732
-0.0174063
-0.0170633
-0.0166449
-0.0161522
-0.0155869
-0.0149508
-0.0142465
-0.0134767
-0.0126447
-0.011754
-0.0108084
-0.00981228
-0.00877006
-0.00768651
-0.00656665
-0.00541574
-0.00423916
-0.00304245
-0.00183126
-0.000611378
0.000606306
0.00181595
0.00301682
0.00420308
0.00536907
0.00650911
0.00761777
0.00868983
0.00972022
0.0107041
0.011637
0.0125147
0.0133333
0.0140892
0.0147792
0.0154007
0.0159511
0.0164287
0.0168319
0.0171596
0.0174113
0.0175867
0.0176861
0.0177103
0.0176605
0.0175381
0.0173451
0.0170838
0.0167568
0.016367
0.0159174
0.0154113
0.0148521
0.014243
0.0135873
0.0128887
0.0121501
0.0113756
0.01057
0.00973606
0.00887703
0.00799677
0.00709824
0.00618374
0.00525512
0.00431462
0.00336481
0.00240814
0.0014468
0.000482692
-0.000482343
-0.00144646
-0.0024078
-0.00336446
-0.00431425
-0.00525476
-0.00618339
-0.00709791
-0.00799644
-0.00887669
-0.0097357
-0.0105696
-0.0113753
-0.0121498
-0.0128884
-0.013587
-0.0142427
-0.0148518
-0.015411
-0.0159171
-0.0163667
-0.0167565
-0.0170836
-0.0173449
-0.0175378
-0.0176602
-0.0177101
-0.0176859
-0.0175865
-0.0174111
-0.0171594
-0.0168317
-0.0164286
-0.015951
-0.0154005
-0.0147791
-0.014089
-0.0133332
-0.0125146
-0.0116369
-0.010704
-0.00972014
-0.00868976
-0.00761773
-0.00650906
-0.005369
-0.00420307
-0.0030168
-0.00181595
-0.000606285
0.000600695
0.00179914
0.00298868
0.00416347
0.00531774
0.00644584
0.00754221
0.00860162
0.00961896
0.0105894
0.0115083
0.0123716
0.0131753
0.0139158
0.0145901
0.0151954
0.0157294
0.0161902
0.0165764
0.0168871
0.0171217
0.0172804
0.0173633
0.0173716
0.0173064
0.0171697
0.0169635
0.0166903
0.016353
0.0159547
0.0154988
0.0149887
0.0144279
0.0138199
0.013168
0.0124757
0.0117475
0.0109872
0.0101989
0.0093857
0.00855065
0.00769689
0.00682716
0.00594364
0.00504827
0.00414303
0.00322997
0.00231113
0.00138832
0.000463147
-0.000462808
-0.00138796
-0.00231079
-0.00322963
-0.00414267
-0.00504791
-0.0059433
-0.00682683
-0.00769656
-0.00855029
-0.00938536
-0.0101986
-0.0109869
-0.0117472
-0.0124754
-0.0131677
-0.0138197
-0.0144276
-0.0149884
-0.0154985
-0.0159544
-0.0163527
-0.01669
-0.0169632
-0.0171694
-0.0173062
-0.0173713
-0.0173631
-0.0172801
-0.0171215
-0.0168869
-0.0165762
-0.01619
-0.0157292
-0.0151952
-0.0145899
-0.0139157
-0.0131751
-0.0123715
-0.0115082
-0.0105893
-0.00961888
-0.00860157
-0.00754216
-0.00644577
-0.00531769
-0.00416344
-0.00298866
-0.00179911
-0.000600695
0.000594585
0.00178078
0.00295798
0.00412023
0.00526172
0.00637675
0.00745971
0.00850527
0.00950834
0.010464
0.0113677
0.0122151
0.0130024
0.0137261
0.0143831
0.0149706
0.0154863
0.0159286
0.0162961
0.016588
0.0168038
0.0169437
0.0170084
0.0169988
0.0169166
0.0167637
0.0165426
0.0162561
0.015907
0.015499
0.0150357
0.0145209
0.0139579
0.0133506
0.0127035
0.0120203
0.0113052
0.0105618
0.00979367
0.00900399
0.00819566
0.00737131
0.00653342
0.005684
0.00482489
0.00395781
0.00308447
0.00220645
0.00132519
0.000442056
-0.000441707
-0.00132487
-0.00220612
-0.00308412
-0.00395746
-0.00482453
-0.00568365
-0.00653307
-0.00737098
-0.00819531
-0.00900366
-0.00979331
-0.0105614
-0.0113049
-0.01202
-0.0127032
-0.0133503
-0.0139576
-0.0145206
-0.0150354
-0.0154988
-0.0159067
-0.0162558
-0.0165424
-0.0167635
-0.0169163
-0.0169986
-0.0170081
-0.0169435
-0.0168036
-0.0165878
-0.0162959
-0.0159285
-0.0154862
-0.0149704
-0.0143829
-0.013726
-0.0130023
-0.012215
-0.0113676
-0.0104639
-0.00950826
-0.00850523
-0.00745966
-0.00637669
-0.00526167
-0.00412021
-0.00295793
-0.00178076
-0.000594575
0.000587979
0.00176085
0.00292464
0.0040733
0.00520092
0.00630173
0.00737011
0.00840063
0.00938813
0.0103277
0.0112147
0.0120449
0.0128144
0.0135197
0.0141576
0.0147256
0.0152214
0.0156434
0.0159902
0.0162613
0.0164563
0.0165756
0.01662
0.0165906
0.0164893
0.0163184
0.0160807
0.0157791
0.0154168
0.0149978
0.0145259
0.0140054
0.013441
0.0128367
0.0121969
0.0115253
0.0108258
0.0101018
0.00935666
0.0085933
0.00781436
0.0070222
0.00621895
0.00540652
0.00458645
0.00376027
0.00292936
0.0020949
0.00125797
0.000419588
-0.00041926
-0.00125762
-0.00209456
-0.00292902
-0.00375993
-0.00458609
-0.00540616
-0.00621863
-0.00702186
-0.00781401
-0.00859296
-0.0093563
-0.0101015
-0.0108254
-0.011525
-0.0121966
-0.0128364
-0.0134407
-0.0140051
-0.0145257
-0.0149975
-0.0154165
-0.0157788
-0.0160804
-0.0163181
-0.016489
-0.0165903
-0.0166197
-0.0165754
-0.0164561
-0.0162611
-0.01599
-0.0156432
-0.0152212
-0.0147254
-0.0141575
-0.0135195
-0.0128143
-0.0120448
-0.0112146
-0.0103276
-0.00938809
-0.00840058
-0.00737004
-0.00630167
-0.00520088
-0.00407326
-0.0029246
-0.00176083
-0.000587957
0.00058081
0.00173935
0.00288865
0.0040226
0.00513524
0.00622071
0.0072733
0.00828753
0.0092582
0.0101803
0.0110493
0.0118607
0.0126108
0.0132961
0.0139133
0.01446
0.014934
0.0153336
0.0156579
0.0159062
0.0160783
0.0161749
0.0161968
0.0161455
0.0160231
0.015832
0.0155757
0.0152575
0.0148801
0.0144487
0.0139685
0.0134443
0.0128806
0.0122816
0.0116514
0.0109938
0.0103123
0.00961035
0.00889081
0.00815634
0.00740941
0.00665207
0.00588612
0.00511319
0.00433469
0.0035519
0.00276586
0.00197736
0.00118715
0.000395946
-0.000395617
-0.00118681
-0.00197702
-0.00276549
-0.00355156
-0.00433435
-0.00511285
-0.00588579
-0.00665172
-0.00740908
-0.00815601
-0.00889045
-0.00961
-0.010312
-0.0109935
-0.0116511
-0.0122813
-0.0128803
-0.013444
-0.0139682
-0.0144484
-0.0148799
-0.0152572
-0.0155755
-0.0158317
-0.0160228
-0.0161453
-0.0161966
-0.0161747
-0.0160781
-0.015906
-0.0156577
-0.0153335
-0.0149338
-0.0144598
-0.0139131
-0.0132959
-0.0126107
-0.0118606
-0.0110492
-0.0101802
-0.00925813
-0.00828748
-0.00727325
-0.00622066
-0.0051352
-0.00402256
-0.0028886
-0.00173933
-0.0005808
0.000573124
0.00171623
0.00284996
0.00396812
0.00506465
0.00613358
0.00716918
0.00816586
0.00911835
0.0100217
0.0108711
0.0116623
0.0123914
0.0130549
0.0136497
0.0141732
0.0146235
0.0149988
0.0152984
0.0155217
0.0156689
0.0157405
0.0157377
0.0156623
0.0155164
0.0153028
0.0150257
0.0146887
0.014296
0.0138536
0.013367
0.012841
0.0122801
0.0116886
0.0110704
0.0104293
0.00976835
0.00909087
0.0083994
0.00769638
0.00698392
0.0062638
0.00553752
0.00480641
0.00407168
0.0033344
0.00259533
0.00185489
0.00111341
0.000371307
-0.000370979
-0.00111308
-0.00185454
-0.00259498
-0.00333405
-0.00407134
-0.00480611
-0.00553719
-0.00626346
-0.00698359
-0.00769605
-0.00839904
-0.00909052
-0.00976802
-0.0104289
-0.0110701
-0.0116883
-0.0122798
-0.0128407
-0.0133667
-0.0138533
-0.0142957
-0.0146885
-0.0150255
-0.0153026
-0.0155162
-0.0156621
-0.0157375
-0.0157402
-0.0156686
-0.0155215
-0.0152982
-0.0149987
-0.0146233
-0.0141731
-0.0136495
-0.0130547
-0.0123913
-0.0116622
-0.010871
-0.0100216
-0.0091183
-0.00816581
-0.00716912
-0.00613353
-0.00506461
-0.0039681
-0.00284992
-0.00171619
-0.000573113
0.000564897
0.00169149
0.00280855
0.00390982
0.00498909
0.00604034
0.0070577
0.00803556
0.00896856
0.00985163
0.01068
0.0114495
0.0121559
0.0127959
0.0133665
0.013865
0.0142895
0.0146385
0.0149112
0.0151072
0.015227
0.0152713
0.0152415
0.0151396
0.014968
0.0147295
0.0144295
0.0140738
0.0136674
0.0132159
0.012725
0.0121993
0.0116435
0.0110618
0.0104581
0.00983567
0.00919778
0.00854718
0.00788626
0.00721705
0.00654137
0.0058607
0.00517625
0.00448895
0.00379977
0.00310974
0.00241942
0.00172868
0.00103747
0.000345981
-0.000345653
-0.00103715
-0.00172833
-0.00241906
-0.00310942
-0.00379942
-0.00448861
-0.00517592
-0.00586037
-0.00654103
-0.00721672
-0.00788591
-0.00854683
-0.00919743
-0.00983533
-0.0104578
-0.0110616
-0.0116433
-0.012199
-0.0127247
-0.0132157
-0.0136671
-0.0140735
-0.0144292
-0.0147293
-0.0149678
-0.0151394
-0.0152413
-0.0152711
-0.0152268
-0.015107
-0.014911
-0.0146383
-0.0142893
-0.0138648
-0.0133663
-0.0127958
-0.0121558
-0.0114493
-0.01068
-0.00985155
-0.0089685
-0.00803549
-0.00705764
-0.00604029
-0.00498906
-0.00390979
-0.00280854
-0.00169146
-0.000564876
0.000556119
0.00166515
0.00276447
0.00384771
0.00490858
0.00594094
0.00693886
0.0078966
0.00880876
0.00967018
0.0104761
0.0112221
0.0119043
0.0125191
0.0130635
0.013535
0.0139317
0.0142521
0.0144957
0.0146621
0.014752
0.0147665
0.0147071
0.0145761
0.0143759
0.0141115
0.0137898
0.0134169
0.0129983
0.0125398
0.0120465
0.0115234
0.010975
0.0104056
0.0098186
0.00921747
0.00860498
0.00798368
0.0073556
0.00672247
0.00608566
0.0054465
0.00480577
0.00416394
0.00352168
0.00288026
0.00224001
0.00160011
0.000960197
0.000320189
-0.000319871
-0.000959847
-0.00159977
-0.00223966
-0.00287993
-0.00352133
-0.0041636
-0.00480545
-0.00544616
-0.00608533
-0.00672214
-0.00735526
-0.00798332
-0.00860462
-0.00921713
-0.0098183
-0.0104053
-0.0109748
-0.0115231
-0.0120462
-0.0125395
-0.0129981
-0.0134166
-0.0137895
-0.0141113
-0.0143757
-0.0145759
-0.0147069
-0.0147663
-0.0147518
-0.0146619
-0.0144955
-0.0142519
-0.0139315
-0.0135348
-0.0130633
-0.0125189
-0.0119042
-0.011222
-0.010476
-0.0096701
-0.0088087
-0.00789655
-0.00693879
-0.00594089
-0.00490853
-0.00384768
-0.00276443
-0.00166512
-0.000556119
0.000546834
0.0016372
0.00271772
0.00378182
0.00482314
0.00583545
0.00681269
0.00774905
0.00863902
0.00947737
0.0102593
0.0109803
0.0116365
0.0122243
0.0127407
0.0131832
0.0135499
0.0138396
0.0140516
0.014186
0.0142434
0.0142254
0.0141337
0.0139707
0.0137412
0.0134522
0.0131103
0.0127221
0.0122932
0.0118295
0.0113361
0.0108179
0.0102794
0.00972459
0.00915693
0.00857947
0.00799482
0.00740513
0.00681221
0.00621724
0.00562115
0.00502528
0.00443004
0.00383507
0.00324071
0.00264876
0.00205931
0.00147069
0.000882386
0.000294217
-0.000293899
-0.000882058
-0.00147035
-0.00205896
-0.0026484
-0.00324037
-0.00383472
-0.00442972
-0.00502493
-0.00562082
-0.00621694
-0.00681188
-0.00740477
-0.00799446
-0.00857914
-0.00915663
-0.00972429
-0.0102791
-0.0108176
-0.0113358
-0.0118292
-0.012293
-0.0127218
-0.0131101
-0.0134519
-0.013741
-0.0139705
-0.0141335
-0.0142251
-0.0142432
-0.0141857
-0.0140514
-0.0138394
-0.0135497
-0.013183
-0.0127405
-0.0122241
-0.0116364
-0.0109802
-0.0102592
-0.00947726
-0.00863893
-0.00774899
-0.00681263
-0.0058354
-0.00482311
-0.00378178
-0.00271767
-0.00163717
-0.000546823
0.000537019
0.00160771
0.00266831
0.00371222
0.00473289
0.00572396
0.00667931
0.00759299
0.00845943
0.0092733
0.0100297
0.0107242
0.0113526
0.0119116
0.0123981
0.0128095
0.0131442
0.0134008
0.0135789
0.0136786
0.0137009
0.0136476
0.0135208
0.0133252
0.0130678
0.0127556
0.0123954
0.0119937
0.0115567
0.0110899
0.0105988
0.010088
0.00956185
0.0090242
0.00847837
0.0079271
0.00737266
0.00681687
0.0062613
0.00570659
0.00515277
0.00460154
0.00405312
0.00350631
0.00296131
0.0024191
0.00187964
0.0013418
0.00080483
0.00026834
-0.000268022
-0.000804501
-0.00134146
-0.00187928
-0.00241876
-0.00296096
-0.00350596
-0.00405278
-0.00460118
-0.00515245
-0.00570627
-0.00626097
-0.00681653
-0.00737233
-0.00792678
-0.00847806
-0.00902389
-0.00956154
-0.0100877
-0.0105985
-0.0110897
-0.0115564
-0.0119935
-0.0123951
-0.0127553
-0.0130676
-0.013325
-0.0135206
-0.0136474
-0.0137007
-0.0136784
-0.0135786
-0.0134006
-0.013144
-0.0128094
-0.0123979
-0.0119115
-0.0113525
-0.010724
-0.0100296
-0.0092732
-0.00845933
-0.00759293
-0.00667924
-0.00572393
-0.00473284
-0.00371219
-0.00266828
-0.00160768
-0.000537008
0.000526696
0.00157666
0.00261637
0.003639
0.00463793
0.00560666
0.00653889
0.00742867
0.00827024
0.0090582
0.0097876
0.0104539
0.011053
0.0115814
0.0120359
0.0124143
0.0127147
0.012936
0.0130776
0.0131401
0.0131246
0.0130332
0.0128706
0.0126438
0.01236
0.0120262
0.0116496
0.0112367
0.0107937
0.0103264
0.00983993
0.00933907
0.00882792
0.00831012
0.0077888
0.00726626
0.00674453
0.00622479
0.00570855
0.00519608
0.00468646
0.00418053
0.00367844
0.00317952
0.00268362
0.00219099
0.00170135
0.00121391
0.000727887
0.000242664
-0.000242336
-0.000727559
-0.00121359
-0.00170101
-0.00219065
-0.00268325
-0.00317915
-0.00367809
-0.00418018
-0.00468615
-0.00519575
-0.00570821
-0.00622445
-0.00674419
-0.00726594
-0.0077885
-0.00830982
-0.00882763
-0.00933878
-0.00983964
-0.0103261
-0.0107934
-0.0112364
-0.0116493
-0.012026
-0.0123597
-0.0126436
-0.0128704
-0.013033
-0.0131244
-0.0131398
-0.0130774
-0.0129358
-0.0127145
-0.0124142
-0.0120358
-0.0115812
-0.0110528
-0.0104538
-0.00978748
-0.00905808
-0.00827013
-0.00742858
-0.00653885
-0.00560661
-0.00463789
-0.00363897
-0.00261633
-0.00157665
-0.000526685
0.000515885
0.00154418
0.00256196
0.00356231
0.00453843
0.00548369
0.00639173
0.00725634
0.00807173
0.00883243
0.00953335
0.0101699
0.0107379
0.0112339
0.0116547
0.011998
0.012262
0.0124455
0.0125483
0.0125707
0.0125146
0.0123846
0.0121876
0.0119311
0.0116225
0.0112691
0.0108781
0.0104562
0.0100097
0.00954431
0.00906533
0.0085772
0.00808379
0.00758857
0.00709458
0.00660345
0.00611696
0.00563592
0.00516005
0.00468948
0.00422375
0.003763
0.00330714
0.00285569
0.00240837
0.00196488
0.00152481
0.00108739
0.000651781
0.000217243
-0.000216925
-0.000651453
-0.00108703
-0.00152447
-0.00196453
-0.00240801
-0.00285534
-0.0033068
-0.00376268
-0.00422342
-0.00468914
-0.00515972
-0.00563556
-0.00611663
-0.00660312
-0.00709427
-0.00758827
-0.00808351
-0.00857691
-0.00906503
-0.00954404
-0.0100094
-0.0104559
-0.0108779
-0.0112689
-0.0116223
-0.0119309
-0.0121874
-0.0123844
-0.0125144
-0.0125705
-0.0125481
-0.0124453
-0.0122618
-0.0119978
-0.0116545
-0.0112337
-0.0107378
-0.0101697
-0.00953323
-0.00883231
-0.00807163
-0.00725627
-0.00639166
-0.00548366
-0.00453839
-0.00356227
-0.00256191
-0.00154416
-0.000515896
0.000504641
0.0015103
0.00250523
0.00348232
0.00443464
0.00535543
0.00623809
0.0070764
0.00786437
0.00859645
0.00926746
0.00987272
0.010408
0.0108698
0.011255
0.0115611
0.0117865
0.0119301
0.0119914
0.0119711
0.0118737
0.0117063
0.0114766
0.011192
0.0108605
0.0104895
0.0100863
0.00965783
0.00921036
0.00874972
0.00828108
0.00780872
0.00733606
0.00686624
0.00640256
0.00594581
0.00549584
0.00505308
0.00461736
0.0041885
0.00376619
0.00335022
0.00294023
0.00253577
0.00213633
0.00174144
0.00135039
0.000962441
0.00057666
0.000192192
-0.000191853
-0.000576321
-0.000962102
-0.00135005
-0.00174109
-0.00213598
-0.00253541
-0.00293988
-0.00334988
-0.00376589
-0.00418818
-0.00461701
-0.00505274
-0.00549549
-0.00594548
-0.00640226
-0.00686593
-0.00733577
-0.00780843
-0.00828078
-0.00874945
-0.0092101
-0.00965758
-0.0100861
-0.0104893
-0.0108603
-0.0111918
-0.0114763
-0.0117061
-0.0118735
-0.0119709
-0.0119912
-0.0119299
-0.0117863
-0.0115609
-0.0112548
-0.0108696
-0.0104079
-0.00987258
-0.00926732
-0.00859634
-0.00786427
-0.00707631
-0.00623803
-0.00535537
-0.0044346
-0.00348228
-0.00250521
-0.00151029
-0.00050463
0.000492941
0.00147513
0.00244635
0.00339927
0.00432686
0.00522215
0.00607846
0.00688933
0.0076487
0.00835089
0.0089906
0.00956312
0.0100641
0.01049
0.0108376
0.0111045
0.0112891
0.0113905
0.0114078
0.011344
0.0112065
0.0110033
0.0107424
0.0104317
0.0100793
0.00969288
0.00927996
0.00884744
0.00840182
0.00794883
0.00749358
0.00704037
0.00659176
0.00615067
0.00571904
0.00529648
0.00488282
0.0044781
0.00408215
0.00369465
0.0033152
0.00294341
0.00257873
0.0022206
0.00186833
0.00152128
0.00117861
0.00083941
0.000502693
0.000167511
-0.000167162
-0.000502354
-0.000839071
-0.00117827
-0.00152094
-0.00186798
-0.00222023
-0.00257839
-0.00294307
-0.00331488
-0.00369432
-0.0040818
-0.00447778
-0.00488248
-0.00529615
-0.00571872
-0.00615036
-0.00659147
-0.00704007
-0.00749331
-0.00794854
-0.00840154
-0.0088472
-0.00927971
-0.00969264
-0.010079
-0.0104315
-0.0107421
-0.0110031
-0.0112063
-0.0113438
-0.0114076
-0.0113903
-0.0112889
-0.0111043
-0.0108374
-0.0104898
-0.010064
-0.00956296
-0.00899049
-0.00835076
-0.00764859
-0.00688924
-0.00607836
-0.0052221
-0.00432681
-0.00339924
-0.00244629
-0.00147513
-0.000492941
0.000480861
0.0014388
0.00238548
0.00331346
0.00421544
0.00508433
0.00591329
0.00669571
0.00742538
0.00809647
0.00870361
0.00924194
0.00970712
0.0100954
0.0104037
0.0106294
0.0107709
0.0108276
0.0108001
0.0106938
0.0105177
0.0102804
0.00999015
0.00965535
0.00928426
0.00888492
0.00846486
0.00803117
0.00759035
0.00714812
0.00670953
0.00627881
0.00585755
0.00544639
0.00504646
0.00465768
0.00427984
0.00391274
0.00355606
0.00320933
0.00287209
0.00254376
0.00222364
0.00191104
0.00160513
0.00130507
0.00100989
0.000718602
0.000430092
0.000143297
-0.000142937
-0.000429742
-0.000718252
-0.00100956
-0.00130472
-0.00160478
-0.00191068
-0.0022233
-0.00254342
-0.00287176
-0.00320901
-0.00355571
-0.00391241
-0.00427953
-0.00465736
-0.00504616
-0.00544607
-0.00585724
-0.0062785
-0.00670923
-0.00714783
-0.00759008
-0.00803094
-0.00846461
-0.00888467
-0.00928403
-0.00965512
-0.00998992
-0.0102802
-0.0105175
-0.0106936
-0.0107999
-0.0108274
-0.0107707
-0.0106292
-0.0104035
-0.0100952
-0.00970697
-0.00924181
-0.00870349
-0.00809634