/*--------------------------------*- C++ -*----------------------------------*\
  =========                 |
  \\      /  F ield         | OpenFOAM: The Open Source CFD Toolbox
   \\    /   O peration     | Website:  https://openfoam.org
    \\  /    A nd           | Version:  7
     \\/     M anipulation  |
\*---------------------------------------------------------------------------*/
FoamFile
{
    version     2.0;
    format      ascii;
    class       volScalarField;
    location    "0.04";
    object      gradTy;
}
// * * * * * * * * * * * * * * * * * * * * * * * * * * * * * * * * * * * * * //

dimensions      [0 -1 0 1 0 0 0];

internalField   nonuniform List<scalar> 
10000
(
5.70794e-05
5.70053e-05
5.69312e-05
5.68041e-05
5.66242e-05
5.637e-05
5.61053e-05
5.57877e-05
5.54595e-05
5.50571e-05
5.46124e-05
5.41148e-05
5.36172e-05
5.30984e-05
5.25266e-05
5.18808e-05
5.12667e-05
5.06102e-05
4.99326e-05
4.92338e-05
4.85138e-05
4.7815e-05
4.70633e-05
4.63009e-05
4.55386e-05
4.47763e-05
4.40245e-05
4.32728e-05
4.25211e-05
4.17799e-05
4.10705e-05
4.03611e-05
3.96623e-05
3.89953e-05
3.83282e-05
3.77247e-05
3.71318e-05
3.65389e-05
3.60307e-05
3.55648e-05
3.50989e-05
3.46754e-05
3.42837e-05
3.39766e-05
3.36801e-05
3.34578e-05
3.3246e-05
3.31084e-05
3.30131e-05
3.29708e-05
3.29602e-05
3.30237e-05
3.31296e-05
3.32672e-05
3.34684e-05
3.36696e-05
3.39766e-05
3.42837e-05
3.46754e-05
3.50672e-05
3.55436e-05
3.60413e-05
3.65706e-05
3.71318e-05
3.77141e-05
3.83282e-05
3.89741e-05
3.96517e-05
4.03505e-05
4.10493e-05
4.17799e-05
4.25211e-05
4.32622e-05
4.40139e-05
4.47869e-05
4.55386e-05
4.62904e-05
4.70421e-05
4.77727e-05
4.85244e-05
4.92444e-05
4.99326e-05
5.06208e-05
5.12667e-05
5.18808e-05
5.24949e-05
5.30666e-05
5.36066e-05
5.41042e-05
5.46019e-05
5.50466e-05
5.54383e-05
5.58089e-05
5.61053e-05
5.63912e-05
5.66242e-05
5.68147e-05
5.69524e-05
5.70371e-05
5.71006e-05
0.000171027
0.000170868
0.000170592
0.00017018
0.00016964
0.000168951
0.000168125
0.000167162
0.000166124
0.000164938
0.000163604
0.000162207
0.00016065
0.00015902
0.000157305
0.000155473
0.000153578
0.000151629
0.000149575
0.0001475
0.00014534
0.00014317
0.000140946
0.00013868
0.000136425
0.000134159
0.000131904
0.000129628
0.000127373
0.000125191
0.000122989
0.000120872
0.000118786
0.000116795
0.000114847
0.000112994
0.000111226
0.000109532
0.000107944
0.000106493
0.000105127
0.000103899
0.000102756
0.000101782
0.000100903
0.000100225
9.96217e-05
9.91981e-05
9.89229e-05
9.87323e-05
9.87429e-05
9.89017e-05
9.9177e-05
9.96111e-05
0.000100215
0.000100892
0.00010176
0.000102756
0.000103867
0.000105096
0.000106451
0.000107944
0.000109532
0.000111194
0.000113005
0.000114858
0.000116795
0.000118775
0.000120882
0.000122979
0.00012516
0.000127383
0.000129596
0.000131894
0.000134138
0.000136425
0.00013867
0.000140925
0.000143149
0.00014533
0.00014749
0.000149586
0.000151629
0.000153599
0.000155494
0.000157294
0.000158999
0.00016064
0.000162175
0.000163594
0.000164896
0.000166114
0.000167183
0.000168136
0.000168941
0.000169618
0.00017018
0.000170592
0.000170857
0.000170995
0.000284264
0.000284021
0.000283555
0.000282888
0.000281977
0.000280834
0.000279479
0.000277869
0.000276112
0.00027411
0.000271929
0.000269568
0.000267027
0.000264327
0.000261437
0.00025843
0.000255285
0.000251992
0.000248625
0.000245153
0.000241574
0.000237932
0.000234236
0.000230509
0.000226751
0.000222981
0.000219191
0.000215432
0.000211737
0.000208042
0.000204421
0.000200884
0.000197443
0.000194087
0.000190868
0.000187755
0.000184833
0.000182049
0.000179391
0.000176935
0.000174701
0.000172625
0.000170762
0.000169131
0.000167723
0.000166516
0.000165584
0.000164843
0.000164367
0.000164134
0.000164102
0.000164346
0.000164822
0.000165553
0.000166484
0.000167734
0.00016911
0.000170772
0.000172625
0.000174669
0.000176935
0.000179391
0.000181996
0.000184801
0.000187777
0.000190858
0.000194087
0.000197422
0.000200874
0.00020441
0.000208031
0.000211705
0.000215432
0.00021918
0.000222939
0.000226719
0.000230478
0.000234194
0.00023791
0.000241553
0.000245121
0.000248604
0.000251971
0.000255253
0.000258409
0.000261416
0.000264295
0.000266995
0.000269558
0.000271929
0.0002741
0.00027608
0.000277869
0.000279447
0.000280781
0.000281935
0.000282845
0.000283534
0.000283989
0.000284232
0.000396369
0.00039603
0.000395374
0.00039441
0.00039314
0.000391573
0.000389678
0.000387486
0.000384987
0.000382202
0.000379164
0.00037585
0.000372292
0.000368512
0.000364531
0.000360338
0.000355944
0.00035137
0.000346659
0.00034181
0.000336844
0.000331751
0.000326595
0.000321396
0.000316155
0.000310861
0.000305609
0.000300347
0.000295149
0.000290013
0.000284995
0.00028004
0.000275233
0.000270574
0.000266085
0.000261765
0.000257636
0.00025375
0.000250108
0.000246709
0.000243533
0.000240642
0.000238048
0.000235772
0.000233802
0.000232129
0.000230806
0.000229811
0.000229112
0.000228784
0.000228805
0.000229112
0.0002298
0.000230795
0.00023214
0.000233802
0.000235782
0.000238059
0.000240642
0.000243511
0.000246688
0.000250086
0.00025376
0.000257646
0.000261733
0.000266085
0.000270574
0.000275254
0.00028005
0.000284984
0.000290024
0.000295159
0.000300358
0.000305578
0.000310851
0.000316102
0.000321343
0.000326563
0.000331719
0.000336812
0.000341757
0.000346638
0.000351349
0.000355902
0.000360285
0.000364489
0.000368512
0.000372282
0.000375839
0.000379143
0.000382181
0.000384966
0.000387475
0.000389656
0.000391541
0.000393129
0.00039441
0.000395363
0.000396041
0.000396348
0.000506843
0.00050643
0.000505605
0.000504345
0.000502725
0.000500681
0.000498257
0.00049544
0.000492253
0.000488717
0.000484831
0.000480606
0.000476096
0.000471247
0.000466143
0.000460744
0.000455143
0.000449298
0.000443252
0.000437048
0.000430684
0.000424184
0.000417577
0.000410917
0.000404194
0.00039747
0.000390736
0.000384055
0.000377374
0.00037081
0.000364341
0.000358041
0.00035191
0.000345949
0.000340179
0.000334673
0.000329401
0.000324403
0.000319723
0.00031535
0.000311327
0.000307664
0.00030436
0.000301417
0.000298886
0.000296758
0.000295043
0.000293762
0.000292904
0.00029247
0.000292491
0.000292915
0.000293772
0.000295064
0.000296779
0.000298897
0.000301427
0.00030435
0.000307642
0.000311338
0.000315372
0.000319734
0.000324414
0.00032939
0.000334642
0.000340168
0.000345939
0.0003519
0.000358041
0.000364372
0.00037082
0.000377364
0.000384013
0.000390715
0.000397449
0.000404183
0.000410917
0.000417587
0.000424162
0.000430653
0.000437027
0.000443231
0.000449298
0.000455111
0.000460733
0.000466112
0.000471215
0.000476064
0.000480606
0.00048482
0.000488717
0.000492264
0.000495451
0.000498257
0.000500713
0.000502746
0.000504376
0.000505605
0.000506441
0.000506865
0.000615295
0.000614808
0.000613802
0.000612299
0.000610298
0.000607831
0.000604866
0.000601457
0.000597592
0.000593272
0.000588571
0.000583436
0.000577941
0.000572065
0.00056585
0.000559317
0.000552488
0.000545394
0.000538057
0.000530497
0.000522757
0.00051488
0.000506865
0.000498797
0.000490623
0.000482449
0.000474243
0.000466122
0.000458044
0.000450071
0.000442246
0.000434581
0.000427095
0.000419853
0.000412886
0.000406163
0.000399757
0.000393701
0.000388005
0.000382732
0.00037783
0.000373362
0.000369338
0.000365791
0.00036271
0.000360127
0.000358041
0.000356474
0.000355436
0.000354928
0.000354907
0.000355457
0.000356484
0.000358051
0.000360137
0.0003627
0.000365781
0.000369317
0.000373351
0.000377819
0.0003827
0.000388015
0.00039368
0.000399747
0.000406142
0.000412844
0.000419842
0.000427085
0.00043456
0.000442225
0.00045006
0.000458044
0.000466122
0.000474254
0.000482417
0.000490623
0.000498765
0.000506875
0.00051488
0.000522768
0.000530507
0.000538025
0.000545362
0.000552467
0.000559285
0.000565807
0.000572065
0.000577941
0.000583426
0.000588561
0.000593283
0.000597592
0.000601457
0.000604866
0.00060781
0.000610319
0.00061232
0.000613802
0.000614808
0.000615306
0.00072127
0.000720698
0.000719512
0.000717755
0.000715404
0.000712461
0.00070902
0.000705049
0.000700507
0.000695446
0.000689898
0.000683884
0.000677415
0.000670564
0.000663237
0.000655593
0.000647567
0.000639245
0.000630637
0.000621796
0.000612744
0.00060349
0.00059413
0.000584601
0.000575029
0.000565394
0.000555802
0.000546252
0.000536807
0.000527458
0.000518289
0.000509279
0.000500501
0.000491978
0.000483804
0.000475916
0.00046843
0.000461326
0.000454677
0.00044843
0.000442702
0.000437461
0.000432791
0.000428599
0.000424988
0.00042196
0.000419514
0.000417683
0.000416476
0.00041584
0.00041584
0.000416444
0.000417672
0.000419525
0.00042196
0.000424978
0.000428588
0.000432749
0.00043745
0.000442702
0.00044844
0.000454645
0.000461305
0.00046843
0.000475916
0.000483783
0.000491967
0.000500491
0.000509257
0.000518257
0.000527447
0.000536807
0.000546273
0.000555802
0.000565405
0.000574987
0.000584559
0.000594067
0.000603458
0.000612712
0.000621786
0.000630648
0.000639213
0.000647557
0.000655561
0.000663237
0.000670511
0.000677425
0.000683873
0.000689887
0.000695425
0.000700475
0.000705017
0.00070903
0.000712492
0.000715393
0.000717744
0.000719502
0.000720698
0.00072127
0.00082429
0.000823634
0.000822321
0.000820288
0.000817599
0.000814295
0.000810325
0.00080574
0.000800531
0.000794771
0.000788429
0.000781568
0.000774167
0.000766268
0.000757957
0.000749179
0.000740021
0.000730502
0.000720666
0.000710523
0.000700147
0.000689601
0.000678876
0.000667981
0.000657033
0.000646053
0.000635074
0.000624157
0.000613326
0.000602611
0.000592118
0.000581827
0.0005718
0.00056208
0.0005527
0.000543721
0.000535145
0.000527024
0.00051939
0.000512264
0.000505721
0.000499739
0.000494318
0.000489574
0.000485435
0.000481972
0.000479188
0.000477102
0.000475694
0.000474984
0.000474984
0.000475694
0.000477112
0.000479209
0.000481962
0.000485435
0.000489553
0.000494339
0.000499718
0.00050571
0.000512254
0.000519369
0.000527013
0.000535134
0.00054371
0.00055271
0.00056208
0.0005718
0.000581827
0.00059214
0.000602622
0.000613326
0.000624157
0.000635084
0.000646053
0.000657022
0.000667991
0.000678844
0.000689591
0.000700168
0.000710523
0.000720666
0.000730502
0.000740021
0.000749201
0.000757967
0.0007663
0.000774167
0.000781568
0.000788439
0.000794782
0.000800552
0.00080573
0.000810325
0.000814306
0.000817599
0.000820277
0.00082231
0.000823634
0.000824322
0.000924039
0.000923287
0.000921762
0.000919518
0.000916511
0.000912805
0.000908358
0.000903212
0.000897368
0.000890888
0.000883784
0.000876076
0.000867775
0.000858934
0.000849553
0.000839748
0.000829468
0.000818795
0.000807741
0.00079637
0.000784744
0.000772896
0.000760826
0.00074865
0.000736379
0.000724044
0.000711751
0.00069948
0.000687335
0.00067535
0.000663534
0.000651993
0.000640738
0.000629843
0.000619308
0.000609207
0.000599604
0.000590509
0.000581933
0.00057395
0.00056657
0.000559868
0.000553801
0.000548443
0.000543848
0.000539984
0.00053686
0.000534499
0.000532911
0.000532117
0.000532127
0.0005329
0.000534478
0.000536818
0.000539941
0.000543838
0.000548486
0.000553811
0.000559857
0.00056657
0.000573939
0.000581922
0.000590477
0.000599583
0.000609228
0.000619308
0.000629822
0.000640727
0.000651982
0.000663523
0.000675329
0.000687325
0.000699437
0.00071173
0.000724044
0.000736336
0.000748629
0.000760837
0.000772896
0.000784734
0.00079637
0.000807731
0.000818795
0.000829478
0.00083977
0.000849595
0.000858944
0.000867785
0.000876107
0.000883805
0.00089093
0.000897389
0.000903223
0.000908358
0.000912784
0.000916521
0.000919507
0.000921784
0.000923287
0.000924039
0.00102007
0.00101922
0.00101753
0.00101504
0.00101175
0.00100762
0.00100271
0.000997011
0.000990594
0.000983458
0.00097557
0.000967058
0.000957888
0.000948105
0.000937771
0.000926898
0.000915547
0.000903742
0.000891534
0.000878998
0.000866155
0.000853015
0.000839696
0.000826249
0.000812675
0.00079908
0.000785475
0.000771922
0.000758486
0.000745251
0.000732196
0.000719438
0.000707008
0.000694969
0.000683312
0.000672205
0.000661564
0.000651485
0.00064204
0.000633221
0.000625057
0.000617635
0.000610965
0.000605067
0.000599975
0.000595676
0.000592214
0.00058962
0.000587873
0.000586994
0.000587004
0.000587862
0.000589598
0.000592203
0.000595676
0.000599985
0.000605067
0.000610954
0.000617667
0.000625068
0.00063321
0.00064204
0.000651495
0.000661543
0.000672163
0.000683301
0.000694948
0.000707018
0.000719438
0.000732196
0.000745241
0.000758486
0.000771912
0.000785464
0.000799049
0.000812675
0.000826238
0.000839685
0.000853005
0.000866112
0.000878977
0.000891534
0.000903742
0.000915558
0.000926908
0.000937803
0.000948148
0.00095791
0.000967089
0.000975613
0.000983458
0.000990605
0.000997042
0.00100272
0.0010076
0.00101173
0.00101504
0.00101755
0.00101922
0.00102007
0.00111195
0.00111102
0.00110923
0.00110649
0.00110287
0.00109838
0.00109302
0.00108682
0.0010798
0.001072
0.00106343
0.00105411
0.00104412
0.00103345
0.00102217
0.00101029
0.0009979
0.000984993
0.000971706
0.000957994
0.000943965
0.000929661
0.000915113
0.000900417
0.000885615
0.000870782
0.000855948
0.000841167
0.000826514
0.00081205
0.00079782
0.000783897
0.000770324
0.000757184
0.000744478
0.000732345
0.00072074
0.000709761
0.000699437
0.000689824
0.00068094
0.000672851
0.000665556
0.000659119
0.000653539
0.000648848
0.0006451
0.000642242
0.000640357
0.000639415
0.000639383
0.000640325
0.000642242
0.000645079
0.000648859
0.000653539
0.000659108
0.000665567
0.000672841
0.00068093
0.000689813
0.000699437
0.000709761
0.00072074
0.000732334
0.00074451
0.000757184
0.000770334
0.000783887
0.00079781
0.00081204
0.000826492
0.000841157
0.000855927
0.00087076
0.000885636
0.000900428
0.000915134
0.00092965
0.000943976
0.000958015
0.000971684
0.000985025
0.0009979
0.00101032
0.00102218
0.00103346
0.00104415
0.00105412
0.00106344
0.001072
0.00107982
0.00108684
0.00109303
0.00109841
0.00110289
0.0011065
0.00110921
0.00111104
0.00111196
0.00119937
0.00119841
0.00119642
0.0011935
0.00118959
0.00118473
0.00117894
0.00117226
0.00116469
0.00115623
0.00114699
0.00113693
0.0011261
0.00111461
0.00110241
0.0010896
0.0010762
0.0010623
0.0010479
0.0010331
0.00101797
0.00100251
0.000986825
0.000970964
0.000954966
0.000938936
0.000922906
0.000906961
0.000891142
0.000875514
0.000860151
0.000845117
0.000830495
0.000816275
0.000802617
0.000789466
0.000776952
0.000765061
0.000753923
0.000743536
0.000733975
0.000725208
0.000717352
0.000710385
0.000704382
0.000699342
0.000695266
0.000692185
0.000690141
0.000689114
0.000689093
0.000690131
0.000692164
0.000695245
0.000699321
0.000704382
0.000710396
0.000717352
0.000725219
0.000733965
0.000743557
0.000753933
0.000765072
0.000776941
0.000789477
0.000802595
0.000816275
0.000830473
0.000845138
0.000860141
0.000875504
0.000891121
0.00090695
0.000922895
0.000938936
0.000954956
0.000970964
0.000986836
0.00100254
0.00101799
0.00103315
0.00104794
0.00106233
0.00107622
0.00108962
0.00110241
0.00111461
0.00112615
0.00113694
0.00114698
0.00115625
0.0011647
0.00117226
0.00117894
0.00118474
0.0011896
0.0011935
0.00119646
0.0011984
0.00119938
0.00128197
0.00128091
0.00127883
0.00127568
0.0012715
0.0012663
0.0012601
0.00125295
0.00124484
0.00123581
0.0012259
0.00121512
0.00120358
0.00119124
0.00117819
0.0011645
0.00115016
0.00113526
0.00111984
0.00110404
0.00108779
0.00107127
0.0010545
0.00103752
0.00102043
0.00100327
0.000986095
0.000969016
0.000952076
0.000935368
0.000918935
0.000902852
0.000887203
0.000871999
0.000857367
0.000843295
0.000829902
0.000817217
0.000805264
0.000794146
0.000783887
0.000774548
0.000766141
0.000758687
0.000752239
0.000746829
0.000742477
0.000739206
0.000737003
0.000735902
0.000735923
0.000737025
0.000739216
0.000742488
0.00074684
0.000752229
0.000758687
0.000766131
0.000774548
0.000783908
0.000794157
0.000805274
0.000817217
0.000829902
0.000843306
0.000857367
0.000872042
0.000887203
0.000902863
0.000918978
0.000935389
0.000952076
0.000969037
0.000986105
0.00100325
0.00102041
0.00103751
0.0010545
0.00107128
0.00108783
0.00110407
0.0011199
0.00113529
0.0011502
0.00116449
0.00117823
0.00119127
0.00120359
0.00121516
0.00122593
0.00123584
0.00124486
0.00125296
0.00126013
0.00126635
0.00127152
0.00127571
0.00127884
0.00128094
0.00128201
0.00135946
0.00135833
0.0013561
0.00135275
0.00134833
0.00134278
0.00133623
0.00132862
0.00132002
0.00131041
0.00129989
0.00128847
0.00127619
0.0012631
0.00124925
0.00123468
0.00121944
0.00120368
0.00118733
0.00117049
0.00115327
0.00113571
0.00111788
0.00109985
0.0010817
0.00106346
0.00104525
0.00102713
0.00100916
0.00099142
0.000973971
0.000956904
0.00094026
0.000924145
0.00090858
0.00089363
0.000879411
0.000865954
0.000853301
0.000841485
0.000830579
0.000820658
0.000811743
0.000803834
0.000797005
0.000791245
0.00078665
0.000783156
0.000780806
0.000779641
0.000779641
0.000780837
0.000783156
0.000786629
0.000791245
0.000796994
0.000803834
0.000811743
0.00082068
0.000830632
0.000841495
0.00085328
0.000865964
0.000879443
0.000893652
0.000908602
0.000924155
0.000940281
0.000956914
0.000974003
0.000991441
0.00100919
0.00102713
0.00104527
0.00106347
0.00108171
0.00109985
0.00111788
0.00113572
0.00115329
0.00117049
0.00118734
0.00120367
0.00121947
0.00123471
0.00124927
0.00126314
0.0012762
0.00128851
0.00129992
0.00131046
0.00132003
0.00132863
0.00133626
0.00134282
0.00134834
0.00135276
0.00135611
0.00135835
0.00135947
0.00143148
0.00143028
0.00142795
0.00142443
0.00141975
0.00141394
0.00140699
0.00139894
0.00138988
0.00137976
0.00136866
0.0013566
0.00134364
0.00132984
0.00131524
0.0012999
0.00128386
0.00126717
0.00124995
0.00123222
0.00121406
0.00119552
0.00117672
0.00115771
0.00113856
0.00111935
0.00110016
0.00108102
0.00106208
0.00104336
0.00102498
0.00100698
0.000989451
0.000972447
0.000956035
0.000940302
0.000925309
0.000911111
0.00089776
0.000885319
0.000873842
0.000863349
0.000853947
0.000845625
0.000838414
0.000832369
0.000827477
0.000823824
0.000821368
0.00082014
0.000820129
0.000821357
0.000823835
0.000827509
0.000832358
0.000838414
0.000845614
0.000853957
0.000863381
0.000873842
0.000885329
0.00089776
0.000911111
0.00092532
0.000940323
0.000956046
0.000972436
0.000989451
0.00100701
0.00102499
0.00104341
0.00106213
0.00108105
0.00110016
0.00111936
0.00113858
0.00115775
0.00117673
0.00119557
0.00121407
0.00123223
0.00124997
0.0012672
0.00128389
0.00129991
0.00131526
0.00132987
0.00134369
0.00135664
0.00136869
0.00137978
0.00138989
0.00139897
0.001407
0.0014139
0.00141973
0.00142442
0.00142795
0.00143032
0.00143148
0.00149776
0.00149655
0.00149405
0.00149035
0.00148545
0.00147937
0.0014721
0.00146366
0.00145415
0.00144356
0.00143194
0.00141931
0.00140574
0.00139126
0.00137595
0.00135985
0.00134308
0.00132561
0.00130753
0.00128895
0.0012699
0.00125053
0.00123082
0.0012109
0.00119083
0.00117069
0.00115057
0.00113055
0.00111068
0.00109108
0.00107184
0.00105297
0.0010346
0.00101676
0.000999562
0.000983109
0.000967386
0.00095252
0.000938534
0.000925511
0.000913472
0.000902514
0.000892624
0.000883921
0.000876372
0.00087003
0.000864905
0.000861062
0.0008585
0.000857208
0.00085724
0.00085851
0.000861083
0.000864927
0.00087003
0.000876372
0.000883911
0.000892635
0.000902492
0.000913472
0.0009255
0.000938544
0.00095252
0.000967386
0.000983109
0.000999594
0.00101679
0.00103462
0.00105299
0.00107186
0.00109111
0.0011107
0.00113057
0.00115058
0.00117072
0.00119085
0.00121091
0.00123083
0.00125053
0.00126994
0.00128897
0.00130753
0.00132561
0.00134309
0.00135989
0.00137601
0.0013913
0.00140577
0.00141933
0.00143195
0.00144359
0.0014542
0.0014637
0.0014721
0.00147935
0.00148545
0.00149037
0.00149407
0.00149654
0.00149776
0.00155804
0.00155674
0.00155418
0.00155032
0.0015452
0.00153885
0.0015313
0.00152253
0.00151261
0.00150158
0.00148943
0.00147629
0.00146217
0.00144709
0.00143114
0.00141437
0.00139685
0.00137865
0.00135986
0.00134047
0.00132066
0.00130044
0.00127992
0.00125918
0.00123825
0.00121727
0.00119632
0.00117545
0.00115479
0.00113438
0.00111427
0.00109465
0.00107551
0.00105694
0.00103904
0.00102186
0.00100549
0.000990002
0.000975443
0.000961869
0.000949355
0.00093793
0.000927639
0.000918554
0.000910687
0.000904081
0.000898787
0.000894774
0.000892074
0.00089074
0.00089075
0.000892106
0.000894774
0.000898776
0.000904112
0.000910698
0.000918565
0.000927628
0.00093792
0.000949333
0.000961848
0.000975443
0.000990012
0.0010055
0.00102187
0.00103903
0.00105696
0.00107552
0.00109468
0.00111429
0.00113437
0.00115479
0.00117547
0.00119634
0.00121729
0.00123827
0.00125917
0.00127995
0.00130045
0.00132068
0.00134051
0.00135988
0.00137868
0.00139687
0.00141443
0.00143118
0.00144711
0.00146216
0.00147629
0.00148947
0.00150159
0.00151264
0.00152256
0.00153133
0.00153888
0.00154522
0.00155033
0.00155416
0.00155675
0.00155804
0.0016121
0.00161078
0.0016081
0.00160411
0.00159882
0.00159221
0.00158436
0.00157531
0.00156502
0.00155359
0.00154103
0.0015274
0.00151274
0.00149711
0.00148059
0.00146322
0.00144508
0.00142621
0.00140672
0.00138664
0.00136613
0.00134514
0.00132386
0.00130237
0.0012807
0.00125896
0.00123723
0.00121562
0.00119419
0.001173
0.00115222
0.00113188
0.00111202
0.00109282
0.00107425
0.00105648
0.00103953
0.00102346
0.00100838
0.000994321
0.00098133
0.000969503
0.000958852
0.000949429
0.000941276
0.000934447
0.000928952
0.000924801
0.000922027
0.000920619
0.000920619
0.000922006
0.00092478
0.00092893
0.000934447
0.000941287
0.000949418
0.000958841
0.000969493
0.00098133
0.000994321
0.00100838
0.00102346
0.00103953
0.00105649
0.00107428
0.00109281
0.00111205
0.00113189
0.00115224
0.00117303
0.00119419
0.00121563
0.00123724
0.00125897
0.00128067
0.00130234
0.00132388
0.00134514
0.00136612
0.00138664
0.00140672
0.00142622
0.00144509
0.00146324
0.00148059
0.00149712
0.00151275
0.00152739
0.00154105
0.0015536
0.00156504
0.00157533
0.00158443
0.00159229
0.00159885
0.00160413
0.00160811
0.00161078
0.00161214
0.00165974
0.00165834
0.00165561
0.00165149
0.00164603
0.00163924
0.00163115
0.0016218
0.00161118
0.0015994
0.00158644
0.00157238
0.00155727
0.00154113
0.0015241
0.00150616
0.00148744
0.00146802
0.00144792
0.00142725
0.00140604
0.00138443
0.00136251
0.00134031
0.00131796
0.00129555
0.00127316
0.00125087
0.00122875
0.00120694
0.00118551
0.00116449
0.00114406
0.00112424
0.00110512
0.00108679
0.00106932
0.00105273
0.00103717
0.0010227
0.00100932
0.000997106
0.000986137
0.000976438
0.000968032
0.000960991
0.000955305
0.000951038
0.000948179
0.000946739
0.000946718
0.000948148
0.000951027
0.000955316
0.000960991
0.000968032
0.000976428
0.000986126
0.000997106
0.00100931
0.0010227
0.00103718
0.00105275
0.0010693
0.0010868
0.00110513
0.00112426
0.00114409
0.00116449
0.0011855
0.00120695
0.00122878
0.00125088
0.00127315
0.00129556
0.00131797
0.00134032
0.00136251
0.00138446
0.00140602
0.00142722
0.0014479
0.00146801
0.00148746
0.00150616
0.0015241
0.00154114
0.00155726
0.00157238
0.00158645
0.00159939
0.00161119
0.0016218
0.00163115
0.00163924
0.00164607
0.00165152
0.00165565
0.0016584
0.00165978
0.00170077
0.00169934
0.00169651
0.00169229
0.0016867
0.00167972
0.00167142
0.00166178
0.00165091
0.0016388
0.00162551
0.00161108
0.00159556
0.00157901
0.00156151
0.00154311
0.00152389
0.00150396
0.00148331
0.00146208
0.00144032
0.00141816
0.00139564
0.00137287
0.00134994
0.00132693
0.00130393
0.00128106
0.00125841
0.001236
0.00121401
0.00119245
0.00117146
0.00115112
0.00113153
0.00111269
0.00109474
0.00107775
0.00106178
0.00104691
0.0010332
0.00102069
0.00100942
0.000999425
0.000990838
0.000983617
0.000977772
0.000973389
0.000970467
0.000968985
0.000968995
0.000970477
0.000973431
0.000977804
0.000983617
0.000990838
0.000999478
0.00100944
0.00102069
0.00103322
0.00104694
0.00106182
0.00107779
0.00109478
0.00111272
0.00113154
0.00115114
0.00117149
0.00119246
0.00121401
0.00123603
0.00125841
0.00128106
0.00130396
0.00132696
0.00134997
0.0013729
0.00139568
0.00141819
0.00144034
0.0014621
0.00148333
0.00150396
0.00152393
0.00154312
0.00156155
0.00157904
0.00159558
0.00161109
0.00162552
0.00163881
0.00165092
0.00166179
0.00167141
0.00167973
0.00168671
0.00169233
0.00169655
0.00169937
0.0017008
0.00173501
0.00173357
0.00173067
0.00172635
0.00172062
0.00171352
0.00170499
0.00169518
0.00168408
0.00167168
0.0016581
0.00164334
0.00162747
0.00161058
0.0015927
0.00157392
0.00155427
0.00153386
0.00151279
0.0014911
0.00146887
0.00144622
0.00142321
0.00139991
0.00137649
0.00135299
0.0013295
0.00130614
0.00128294
0.0012601
0.00123761
0.00121561
0.00119417
0.00117337
0.00115333
0.0011341
0.00111576
0.00109842
0.00108211
0.0010669
0.00105287
0.00104009
0.00102862
0.00101842
0.00100963
0.00100223
0.000996301
0.000991812
0.000988805
0.000987323
0.000987323
0.000988826
0.000991823
0.000996323
0.00100224
0.00100964
0.00101844
0.00102862
0.00104014
0.0010529
0.00106695
0.00108214
0.00109844
0.00111581
0.00113413
0.00115335
0.00117338
0.00119416
0.00121562
0.00123763
0.00126011
0.00128295
0.00130616
0.00132953
0.00135303
0.00137651
0.00139995
0.00142323
0.00144623
0.00146889
0.00149112
0.00151279
0.00153386
0.00155426
0.00157394
0.00159273
0.00161061
0.00162752
0.00164338
0.00165814
0.00167171
0.00168408
0.00169521
0.00170503
0.00171353
0.00172065
0.0017264
0.0017307
0.00173357
0.00173503
0.00176236
0.00176089
0.00175794
0.00175356
0.00174773
0.00174048
0.00173184
0.00172187
0.00171053
0.00169792
0.0016841
0.00166908
0.00165293
0.00163574
0.00161755
0.00159844
0.00157847
0.00155768
0.00153621
0.00151417
0.00149156
0.00146851
0.00144509
0.00142141
0.00139756
0.00137367
0.00134976
0.00132598
0.0013024
0.00127914
0.00125626
0.00123385
0.00121206
0.00119092
0.00117051
0.00115096
0.00113231
0.0011147
0.00109808
0.0010826
0.00106835
0.00105535
0.00104364
0.00103332
0.00102434
0.00101684
0.00101079
0.00100623
0.00100319
0.00100167
0.00100166
0.00100319
0.00100621
0.0010108
0.00101684
0.00102436
0.00103331
0.00104367
0.00105536
0.00106838
0.00108264
0.0010981
0.00111471
0.00113237
0.00115098
0.00117053
0.00119095
0.00121207
0.00123387
0.00125628
0.00127916
0.00130243
0.001326
0.00134978
0.00137369
0.0013976
0.00142145
0.00144513
0.00146852
0.0014916
0.0015142
0.00153624
0.00155771
0.00157848
0.00159847
0.00161757
0.00163577
0.00165297
0.00166911
0.00168412
0.00169795
0.00171056
0.00172191
0.00173192
0.00174054
0.00174778
0.00175359
0.00175799
0.00176092
0.0017624
0.00178275
0.00178125
0.00177827
0.00177382
0.00176791
0.00176058
0.00175183
0.0017417
0.0017302
0.00171743
0.00170342
0.00168818
0.00167183
0.00165441
0.00163597
0.00161658
0.00159633
0.0015753
0.00155356
0.0015312
0.00150831
0.00148493
0.00146122
0.00143723
0.00141307
0.00138883
0.00136463
0.00134051
0.00131664
0.00129306
0.00126988
0.0012472
0.0012251
0.00120369
0.00118303
0.00116322
0.00114434
0.00112645
0.00110966
0.001094
0.00107954
0.00106634
0.0010545
0.00104404
0.00103496
0.00102736
0.00102124
0.00101663
0.00101353
0.00101197
0.001012
0.00101353
0.00101662
0.0010212
0.00102733
0.00103496
0.00104402
0.00105451
0.00106636
0.00107954
0.00109399
0.00110964
0.00112647
0.00114433
0.00116323
0.00118304
0.00120373
0.00122514
0.00124725
0.00126991
0.00129308
0.00131669
0.00134056
0.00136468
0.00138888
0.00141312
0.00143729
0.00146124
0.00148497
0.00150833
0.00153121
0.00155359
0.00157534
0.00159638
0.00161663
0.00163598
0.00165441
0.00167186
0.00168822
0.00170342
0.00171748
0.00173024
0.0017417
0.00175184
0.0017606
0.00176795
0.00177384
0.0017783
0.00178129
0.00178276
0.00179605
0.00179456
0.00179156
0.00178705
0.00178109
0.00177367
0.00176484
0.00175459
0.00174301
0.00173013
0.00171597
0.00170061
0.00168412
0.00166654
0.00164791
0.00162834
0.00160791
0.00158668
0.00156473
0.00154215
0.00151904
0.00149546
0.00147153
0.0014473
0.00142294
0.00139849
0.00137405
0.00134975
0.00132566
0.00130187
0.00127847
0.00125558
0.0012333
0.00121166
0.00119083
0.00117085
0.0011518
0.00113374
0.00111682
0.00110103
0.0010864
0.00107314
0.00106116
0.00105059
0.00104145
0.00103376
0.00102759
0.00102294
0.00101981
0.00101825
0.00101823
0.00101981
0.00102293
0.00102759
0.00103378
0.00104147
0.0010506
0.00106116
0.00107312
0.00108643
0.00110099
0.00111679
0.00113374
0.0011518
0.00117086
0.00119086
0.0012117
0.00123333
0.00125563
0.00127851
0.0013019
0.00132568
0.00134979
0.00137411
0.00139855
0.00142298
0.00144736
0.00147155
0.0014955
0.00151905
0.00154218
0.00156478
0.00158673
0.00160795
0.00162836
0.00164792
0.00166654
0.00168413
0.00170065
0.00171599
0.00173015
0.00174302
0.00175461
0.00176484
0.00177369
0.0017811
0.00178709
0.00179157
0.00179458
0.00179607
0.00180224
0.00180075
0.00179773
0.00179321
0.00178722
0.00177973
0.00177083
0.00176056
0.00174892
0.00173598
0.00172174
0.00170632
0.00168974
0.00167207
0.00165336
0.00163367
0.00161313
0.00159177
0.0015697
0.001547
0.00152377
0.0015001
0.00147604
0.00145172
0.00142721
0.00140263
0.00137807
0.00135362
0.0013294
0.00130548
0.00128197
0.00125899
0.00123657
0.00121486
0.00119389
0.00117382
0.00115468
0.00113657
0.00111954
0.00110364
0.001089
0.00107564
0.00106361
0.00105298
0.0010438
0.00103609
0.00102987
0.00102517
0.00102204
0.00102047
0.00102047
0.00102202
0.00102516
0.00102987
0.00103608
0.00104381
0.00105301
0.00106362
0.00107565
0.001089
0.00110365
0.00111953
0.00113656
0.00115469
0.00117385
0.00119395
0.00121489
0.0012366
0.00125901
0.00128202
0.00130552
0.00132945
0.00135369
0.0013781
0.00140265
0.00142724
0.00145173
0.00147606
0.00150013
0.00152381
0.00154706
0.00156975
0.00159181
0.00161314
0.00163368
0.00165333
0.00167206
0.00168972
0.00170632
0.00172176
0.00173598
0.00174896
0.00176059
0.00177087
0.00177975
0.00178723
0.00179323
0.00179775
0.00180078
0.00180228
0.00180133
0.00179981
0.00179677
0.00179226
0.00178625
0.00177879
0.00176989
0.00175961
0.00174794
0.00173495
0.00172072
0.00170529
0.00168866
0.00167094
0.00165221
0.00163254
0.00161196
0.00159058
0.0015685
0.00154577
0.00152249
0.00149877
0.00147466
0.00145034
0.00142579
0.00140121
0.00137662
0.00135216
0.00132789
0.00130394
0.00128042
0.0012574
0.00123495
0.00121326
0.00119226
0.00117216
0.00115301
0.00113485
0.00111778
0.00110191
0.00108725
0.00107388
0.00106183
0.00105121
0.00104201
0.00103428
0.00102807
0.00102336
0.00102024
0.00101867
0.00101867
0.00102026
0.00102339
0.00102805
0.00103429
0.001042
0.00105121
0.00106186
0.00107389
0.00108727
0.00110194
0.00111783
0.00113487
0.00115301
0.00117217
0.00119228
0.00121325
0.00123501
0.00125744