/*--------------------------------*- C++ -*----------------------------------*\
  =========                 |
  \\      /  F ield         | OpenFOAM: The Open Source CFD Toolbox
   \\    /   O peration     | Website:  https://openfoam.org
    \\  /    A nd           | Version:  7
     \\/     M anipulation  |
\*---------------------------------------------------------------------------*/
FoamFile
{
    version     2.0;
    format      ascii;
    class       volScalarField;
    location    "0.04";
    object      gradTx;
}
// * * * * * * * * * * * * * * * * * * * * * * * * * * * * * * * * * * * * * //

dimensions      [0 -1 0 1 0 0 0];

internalField   nonuniform List<scalar> 
10000
(
5.709e-05
0.000171027
0.000284264
0.000396337
0.000506843
0.000615306
0.00072128
0.000824311
0.000924039
0.00102008
0.00111198
0.00119939
0.00128198
0.00135945
0.0014315
0.00149777
0.00155804
0.00161213
0.00165974
0.00170078
0.00173502
0.00176239
0.00178277
0.00179606
0.00180227
0.00180136
0.00179335
0.00177829
0.0017562
0.00172724
0.00169149
0.00164914
0.00160033
0.00154527
0.00148422
0.00141737
0.00134504
0.00126747
0.00118494
0.00109786
0.00100654
0.000911323
0.000812569
0.000710682
0.000606052
0.000499104
0.000390207
0.000279817
0.00016838
5.62748e-05
-5.6063e-05
-0.000168157
-0.000279637
-0.000390027
-0.000498913
-0.000605861
-0.000710502
-0.000812379
-0.000911132
-0.00100637
-0.0010977
-0.00118479
-0.00126728
-0.0013449
-0.00141723
-0.0014841
-0.00154514
-0.0016002
-0.00164897
-0.00169131
-0.00172708
-0.00175603
-0.0017781
-0.00179318
-0.0018012
-0.00180212
-0.00179595
-0.00178265
-0.0017623
-0.00173494
-0.00170067
-0.00165964
-0.00161205
-0.00155798
-0.00149767
-0.0014314
-0.00135939
-0.00128193
-0.00119934
-0.0011119
-0.00102001
-0.000924028
-0.000824269
-0.000721206
-0.000615274
-0.000506833
-0.000396348
-0.000284232
-0.000171027
-5.70794e-05
5.70371e-05
0.000170868
0.000284021
0.00039603
0.00050643
0.000614808
0.000720698
0.000823655
0.000923308
0.00101922
0.00111104
0.00119839
0.00128095
0.00135835
0.00143028
0.00149652
0.00155677
0.00161079
0.00165837
0.00169935
0.00173361
0.00176093
0.00178124
0.00179457
0.00180077
0.00179985
0.00179183
0.00177677
0.00175471
0.00172579
0.00169005
0.00164774
0.00159898
0.00154396
0.00148295
0.00141614
0.00134386
0.00126637
0.00118395
0.00109693
0.00100566
0.000910529
0.00081186
0.000710068
0.000605544
0.000498669
0.000389858
0.000279584
0.000168231
5.62324e-05
-5.60206e-05
-0.000167998
-0.000279404
-0.000389678
-0.0004985
-0.000605364
-0.000709888
-0.00081168
-0.000910338
-0.0010055
-0.00109675
-0.00118374
-0.00126619
-0.00134374
-0.00141604
-0.00148282
-0.00154383
-0.00159883
-0.00164758
-0.00168988
-0.00172561
-0.00175455
-0.00177659
-0.00179167
-0.00179968
-0.00180062
-0.00179443
-0.00178116
-0.00176083
-0.00173348
-0.00169925
-0.00165827
-0.00161071
-0.0015567
-0.00149645
-0.00143023
-0.00135828
-0.00128089
-0.00119833
-0.00111098
-0.00101916
-0.000923266
-0.000823602
-0.000720634
-0.000614755
-0.00050642
-0.00039602
-0.00028401
-0.000170868
-5.70371e-05
5.69312e-05
0.000170603
0.000283565
0.000395406
0.000505594
0.000613813
0.00071948
0.00082231
0.000921815
0.00101756
0.00110924
0.00119643
0.00127881
0.00135612
0.00142793
0.00149405
0.00155419
0.00160811
0.00165562
0.00169653
0.00173071
0.00175799
0.00177828
0.00179154
0.00179775
0.00179683
0.00178882
0.00177377
0.00175176
0.00172285
0.00168719
0.00164493
0.00159625
0.00154131
0.00148042
0.00141375
0.00134157
0.00126419
0.00118189
0.00109504
0.00100395
0.000908972
0.000810452
0.00070884
0.000604496
0.000497801
0.00038918
0.000279119
0.000167924
5.61159e-05
-5.59042e-05
-0.000167734
-0.000278917
-0.000389
-0.000497632
-0.000604316
-0.000708649
-0.000810261
-0.000908803
-0.00100378
-0.00109484
-0.00118172
-0.00126404
-0.00134141
-0.00141358
-0.0014803
-0.00154122
-0.00159611
-0.00164478
-0.00168705
-0.00172266
-0.00175159
-0.00177361
-0.00178864
-0.00179666
-0.00179758
-0.00179144
-0.0017782
-0.00175788
-0.00173058
-0.00169643
-0.00165553
-0.00160803
-0.00155411
-0.00149398
-0.00142789
-0.00135605
-0.00127879
-0.00119637
-0.00110915
-0.0010175
-0.000921752
-0.000822247
-0.000719459
-0.00061376
-0.000505605
-0.000395374
-0.000283565
-0.000170592
-5.69418e-05
5.68041e-05
0.000170169
0.000282898
0.000394431
0.000504387
0.00061231
0.000717733
0.000820298
0.000919539
0.00101505
0.00110649
0.0011935
0.00127567
0.00135276
0.00142441
0.00149034
0.00155035
0.00160414
0.00165151
0.00169231
0.00172637
0.00175359
0.00177384
0.00178707
0.00179323
0.0017923
0.0017843
0.00176928
0.00174733
0.00171847
0.00168293
0.00164075
0.00159218
0.0015374
0.00147661
0.00141011
0.00133814
0.00126095
0.00117885
0.00109224
0.00100134
0.000906601
0.000808366
0.000707018
0.000602929
0.000496531
0.000388185
0.000278356
0.000167511
5.59783e-05
-5.57771e-05
-0.0001673
-0.000278208
-0.000388015
-0.000496319
-0.000602749
-0.000706828
-0.000808186
-0.000906442
-0.00100117
-0.00109203
-0.00117868
-0.00126078
-0.00133797
-0.00140997
-0.00147651
-0.00153728
-0.00159204
-0.00164059
-0.00168275
-0.0017183
-0.00174714
-0.00176912
-0.00178415
-0.00179214
-0.00179309
-0.00178694
-0.00177373
-0.00175349
-0.00172627
-0.00169218
-0.00165143
-0.00160407
-0.00155026
-0.00149029
-0.00142433
-0.00135271
-0.00127562
-0.00119341
-0.00110644
-0.001015
-0.000919475
-0.000820246
-0.000717723
-0.000612267
-0.000504376
-0.0003944
-0.000282877
-0.00017019
-5.67936e-05
5.65924e-05
0.000169608
0.000281967
0.000393161
0.000502756
0.00061033
0.000715404
0.00081762
0.000916532
0.00101174
0.00110288
0.00118957
0.0012715
0.00134833
0.00141973
0.00148546
0.00154523
0.00159884
0.00164607
0.00168671
0.00172065
0.00174775
0.00176792
0.0017811
0.00178722
0.00178629
0.00177832
0.00176333
0.00174142
0.00171267
0.00167721
0.00163521
0.00158677
0.00153219
0.00147158
0.00140531
0.00133357
0.00125664
0.00117483
0.00108847
0.000997911
0.000903477
0.000805592
0.000704583
0.000600853
0.000494815
0.000386851
0.000277414
0.000166918
5.57877e-05
-5.55865e-05
-0.000166717
-0.000277234
-0.000386671
-0.000494625
-0.000600673
-0.000704393
-0.000805401
-0.000903329
-0.000997741
-0.00108829
-0.00117463
-0.00125647
-0.00133342
-0.00140517
-0.00147146
-0.00153205
-0.00158664
-0.00163504
-0.00167706
-0.0017125
-0.00174126
-0.00176317
-0.00177816
-0.00178615
-0.00178709
-0.00178097
-0.00176783
-0.00174763
-0.00172055
-0.00168661
-0.00164592
-0.00159876
-0.00154517
-0.00148539
-0.00141968
-0.00134825
-0.00127144
-0.00118951
-0.00110282
-0.00101167
-0.000916479
-0.000817556
-0.000715383
-0.000610287
-0.000502725
-0.000393129
-0.000281935
-0.000169618
-5.66242e-05
5.63595e-05
0.00016893
0.000280802
0.000391573
0.000500713
0.000607852
0.000712492
0.000814295
0.000912816
0.00100763
0.00109839
0.00118474
0.0012663
0.00134282
0.00141394
0.00147933
0.00153889
0.00159225
0.00163926
0.00167972
0.00171352
0.00174048
0.00176058
0.00177369
0.0017798
0.00177881
0.00177087
0.00175594
0.00173409
0.00170546
0.00167014
0.0016283
0.00158008
0.00152568
0.00146536
0.00139933
0.00132786
0.00125128
0.00116982
0.00108382
0.000993644
0.000899602
0.00080213
0.000701566
0.000598259
0.000492677
0.000385199
0.000276217
0.00016622
5.55548e-05
-5.53218e-05
-0.000166018
-0.000276048
-0.000385008
-0.000492486
-0.000598111
-0.000701364
-0.00080196
-0.000899454
-0.000993464
-0.00108363
-0.00116964
-0.00125112
-0.00132775
-0.00139919
-0.00146521
-0.00152555
-0.00157993
-0.00162811
-0.00166997
-0.0017053
-0.00173395
-0.00175578
-0.00177071
-0.00177867
-0.00177963
-0.00177355
-0.00176048
-0.0017404
-0.00171341
-0.00167963
-0.00163916
-0.00159216
-0.00153883
-0.0014793
-0.00141385
-0.00134275
-0.00126625
-0.00118464
-0.00109833
-0.00100756
-0.000912742
-0.000814253
-0.000712461
-0.000607788
-0.000500702
-0.000391552
-0.000280791
-0.000168941
-5.63806e-05
5.61053e-05
0.000168104
0.000279457
0.000389656
0.000498278
0.000604898
0.000709041
0.000810346
0.000908348
0.00100272
0.00109304
0.00117894
0.00126014
0.00133625
0.00140699
0.00147209
0.00153131
0.00158441
0.00163116
0.00167144
0.00170501
0.00173186
0.00175182
0.00176484
0.00177088
0.00176992
0.001762
0.00174712
0.00172537
0.00169687
0.00166172
0.00162006
0.00157205
0.00151795
0.0014579
0.0013922
0.00132111
0.00124488
0.00116384
0.00107829
0.00098854
0.000894996
0.000798032
0.000697945
0.000595189
0.000490146
0.000383208
0.000274809
0.000165373
5.52583e-05
-5.50677e-05
-0.00016515
-0.00027464
-0.000383007
-0.000489966
-0.000595019
-0.000697775
-0.000797863
-0.000894816
-0.000988371
-0.0010781
-0.00116366
-0.00124474
-0.00132096
-0.00139207
-0.00145776
-0.0015178
-0.00157192
-0.0016199
-0.00166155
-0.00169669
-0.00172522
-0.00174698
-0.00176183
-0.00176977
-0.00177075
-0.00176471
-0.00175172
-0.00173176
-0.00170491
-0.00167132
-0.00163108
-0.00158433
-0.00153127
-0.00147203
-0.0014069
-0.00133615
-0.00126006
-0.00117889
-0.00109296
-0.00100266
-0.000908284
-0.000810282
-0.000709009
-0.000604834
-0.000498235
-0.000389646
-0.000279447
-0.000168115
-5.61159e-05
5.58195e-05
0.000167173
0.000277869
0.000387454
0.00049543
0.000601457
0.000705081
0.000805761
0.000903223
0.000997021
0.00108683
0.00117226
0.00125299
0.00132863
0.00139895
0.00146367
0.00152253
0.00157533
0.00162181
0.00166183
0.00169522
0.00172187
0.00174169
0.0017546
0.00176059
0.00175958
0.00175173
0.00173693
0.00171529
0.00168693
0.00165198
0.00161052
0.00156278
0.00150898
0.00144928
0.00138396
0.00131328
0.0012375
0.00115694
0.00107188
0.000982664
0.00088967
0.000793268
0.000693762
0.000591621
0.000487203
0.000380921
0.000273179
0.000164367
5.49407e-05
-5.47289e-05
-0.000164176
-0.000272978
-0.00038072
-0.000487055
-0.000591462
-0.000693604
-0.000793077
-0.000889501
-0.000982484
-0.0010717
-0.00115675
-0.00123734
-0.00131314
-0.00138383
-0.00144916
-0.00150884
-0.00156264
-0.00161037
-0.00165179
-0.00168675
-0.00171509
-0.00173677
-0.00175161
-0.00175949
-0.00176045
-0.00175449
-0.00174157
-0.00172174
-0.00169509
-0.00166171
-0.00162173
-0.00157526
-0.00152247
-0.00146362
-0.0013989
-0.00132854
-0.0012529
-0.00117218
-0.00108678
-0.000996958
-0.000903149
-0.000805708
-0.000704996
-0.000601425
-0.000495451
-0.000387433
-0.000277848
-0.000167183
-5.57983e-05
5.54489e-05
0.000166124
0.00027609
0.000384955
0.000492274
0.000597624
0.000700496
0.000800563
0.000897378
0.000990605
0.00107984
0.00116468
0.00124485
0.00132003
0.0013899
0.00145416
0.00151262
0.00156504
0.00161119
0.00165092
0.0016841
0.00171057
0.00173021
0.00174301
0.00174893
0.00174796
0.0017401
0.00172538
0.00170385
0.00167566
0.0016409
0.00159974
0.0015523
0.00149885
0.00143954
0.00137465
0.00130441
0.00122913
0.0011491
0.0010646
0.000976015
0.000883625
0.000787847
0.000689051
0.000587619
0.000483899
0.000378338
0.000271315
0.000163234
5.45383e-05
-5.43478e-05
-0.000163043
-0.000271103
-0.000378147
-0.000483741
-0.000587428
-0.000688881
-0.000787688
-0.000883466
-0.000975824
-0.00106443
-0.00114894
-0.00122896
-0.00130426
-0.00137449
-0.00143939
-0.00149872
-0.00155216
-0.00159957
-0.00164073
-0.00167549
-0.0017037
-0.00172523
-0.00173994
-0.00174783
-0.00174882
-0.00174289
-0.00173012
-0.00171043
-0.00168399
-0.00165082
-0.0016111
-0.00156497
-0.00151256
-0.00145409
-0.0013898
-0.00131994
-0.00124479
-0.00116462
-0.00107977
-0.000990542
-0.000897326
-0.00080051
-0.000700443
-0.000597561
-0.000492253
-0.000384955
-0.00027608
-0.000166093
-5.54489e-05
5.50466e-05
0.000164907
0.000274089
0.000382202
0.000488727
0.000593304
0.000695467
0.000794792
0.000890899
0.000983448
0.00107202
0.00115625
0.00123582
0.00131044
0.00137976
0.00144358
0.00150159
0.0015536
0.00159941
0.00163883
0.00167171
0.00169796
0.00171744
0.00173014
0.00173598
0.00173498
0.00172715
0.00171251
0.00169115
0.00166314
0.0016286
0.00158773
0.00154064
0.00148756
0.00142867
0.00136425
0.00129454
0.00121983
0.00114039
0.00105651
0.000968582
0.000876901
0.000781843
0.00068382
0.00058314
0.000480215
0.000375426
0.000269251
0.000161995
5.4136e-05
-5.39348e-05
-0.000161804
-0.00026906
-0.000375267
-0.000480014
-0.000582939
-0.000683651
-0.000781695
-0.000876721
-0.000968413
-0.00105635
-0.00114022
-0.00121967
-0.00129439
-0.00136411
-0.00142855
-0.00148739
-0.00154051
-0.00158755
-0.00162844
-0.00166296
-0.00169098
-0.00171236
-0.00172699
-0.00173488
-0.00173588
-0.00172999
-0.00171732
-0.00169785
-0.00167162
-0.0016387
-0.00159931
-0.00155351
-0.00150149
-0.00144349
-0.00137969
-0.00131037
-0.00123575
-0.00115617
-0.00107195
-0.000983373
-0.000890877
-0.000794729
-0.000695435
-0.000593262
-0.000488717
-0.000382171
-0.000274079
-0.000164896
-5.5036e-05
5.46124e-05
0.000163594
0.000271908
0.000379164
0.000484852
0.000588571
0.000689919
0.000788439
0.000883805
0.000975581
0.00106344
0.00114701
0.00122591
0.00129991
0.00136867
0.00143195
0.00148947
0.00154104
0.00158644
0.00162552
0.00165813
0.00168413
0.00170343
0.00171599
0.00172179
0.00172074
0.00171294
0.0016984
0.00167719
0.00164937
0.00161509
0.00157455
0.00152785
0.00147514
0.00141676
0.00135289
0.00128372
0.00120962
0.00113082
0.00104762
0.000960429
0.000869532
0.000775279
0.00067805
0.000578216
0.00047616
0.00037226
0.000266974
0.000160629
5.36807e-05
-5.34901e-05
-0.000160439
-0.000266784
-0.00037207
-0.000475969
-0.000578036
-0.000677891
-0.000775109
-0.000869352
-0.00096026
-0.00104748
-0.00113063
-0.00120945
-0.00128359
-0.00135273
-0.00141661
-0.00147501
-0.00152769
-0.00157439
-0.00161493
-0.0016492
-0.00167702
-0.00169825
-0.00171281
-0.00172063
-0.00172164
-0.00171587
-0.00170332
-0.00168402
-0.00165801
-0.00162541
-0.00158634
-0.00154093
-0.00148937
-0.00143186
-0.00136858
-0.00129984
-0.00122585
-0.0011469
-0.0010634
-0.000975517
-0.000883762
-0.000788376
-0.000689887
-0.00058855
-0.000484831
-0.000379132
-0.000271887
-0.000163604
-5.45913e-05
5.41254e-05
0.000162175
0.000269568
0.000375839
0.000480628
0.000583447
0.000683916
0.000781557
0.000876086
0.000967058
0.00105413
0.00113694
0.00121516
0.00128849
0.00135662
0.0014193
0.0014763
0.0015274
0.00157239
0.0016111
0.00164338
0.00166911
0.00168821
0.00170064
0.00170634
0.0017053
0.00169755
0.0016831
0.00166202
0.00163445
0.00160046
0.00156023
0.00151392
0.0014617
0.00140384
0.00134051
0.00127197
0.00119852
0.00112046
0.00103802
0.000951599
0.000861517
0.000768121
0.000671803
0.00057288
0.000471755
0.00036884
0.000264486
0.000159168
5.31619e-05
-5.30243e-05
-0.000158956
-0.000264295
-0.000368639
-0.000471564
-0.0005727
-0.000671612
-0.000767952
-0.000861358
-0.00095144
-0.00103785
-0.00112025
-0.00119838
-0.00127183
-0.00134034
-0.0014037
-0.00146158
-0.00151377
-0.00156008
-0.00160031
-0.00163427
-0.00166188
-0.00168293
-0.00169739
-0.00170516
-0.0017062
-0.0017005
-0.0016881
-0.001669
-0.00164325
-0.00161099
-0.00157228
-0.0015273
-0.00147622
-0.00141921
-0.00135656
-0.00128839
-0.00121508
-0.00113688
-0.00105407
-0.000967005
-0.000876033
-0.000781526
-0.000683873
-0.000583405
-0.000480606
-0.000375839
-0.000269536
-0.000162164
-5.41254e-05
5.36278e-05
0.00016065
0.000267027
0.000372313
0.000476096
0.000577931
0.000677425
0.000774178
0.000867806
0.000957888
0.00104411
0.00112614
0.00120359
0.0012762
0.00134368
0.00140575
0.00146214
0.00151273
0.00155726
0.00159561
0.00162753
0.00165297
0.00167188
0.00168415
0.00168976
0.00168871
0.00168095
0.00166661
0.00164572
0.0016184
0.00158472
0.00154486
0.00149899
0.00144728
0.00138995
0.00132722
0.00125933
0.00118658
0.00110927
0.00102771
0.000942091
0.00085292
0.000760445
0.00066508
0.000567163
0.000467033
0.000365145
0.000261839
0.000157548
5.26537e-05
-5.24843e-05
-0.000157368
-0.000261659
-0.000364944
-0.000466821
-0.000566951
-0.00066491
-0.000760297
-0.000852761
-0.000941932
-0.00102749
-0.00110912
-0.00118644
-0.00125919
-0.00132707
-0.00138981
-0.00144715
-0.00149884
-0.00154469
-0.00158457
-0.00161824
-0.00164558
-0.00166646
-0.00168081
-0.00168857
-0.00168961
-0.00168401
-0.00167174
-0.00165288
-0.00162738
-0.00159547
-0.00155716
-0.00151263
-0.0014621
-0.00140566
-0.00134358
-0.0012761
-0.00120351
-0.00112609
-0.00104407
-0.000957825
-0.000867743
-0.000774146
-0.000677383
-0.000577899
-0.000476075
-0.000372292
-0.000266995
-0.00016065
-5.36066e-05
5.30772e-05
0.000159041
0.000264306
0.000368544
0.000471226
0.000572054
0.000670554
0.000766311
0.000858934
0.000948116
0.00103345
0.00111462
0.00119127
0.00126311
0.00132987
0.00139128
0.00144706
0.0014971
0.00154116
0.00157905
0.00161062
0.0016358
0.00165447
0.00166657
0.00167207
0.00167096
0.00166331
0.00164909
0.00162837
0.00160129
0.00156795
0.00152848
0.00148307
0.00143188
0.00137513
0.00131305
0.00124589
0.0011739
0.00109737
0.00101663
0.000932001
0.000843761
0.000752261
0.000657922
0.000561032
0.000462004
0.000361185
0.000259033
0.000155843
5.20714e-05
-5.18914e-05
-0.000155663
-0.000258832
-0.000361016
-0.000461802
-0.000560852
-0.000657721
-0.000752102
-0.000843571
-0.000931821
-0.00101648
-0.00109723
-0.00117374
-0.00124573
-0.00131289
-0.00137497
-0.00143175
-0.00148293
-0.00152831
-0.00156779
-0.00160115
-0.00162823
-0.00164892
-0.00166317
-0.00167087
-0.00167193
-0.00166641
-0.00165432
-0.00163566
-0.0016105
-0.00157892
-0.00154106
-0.00149701
-0.00144702
-0.00139118
-0.00132976
-0.00126302
-0.0011912
-0.00111454
-0.0010334
-0.000948063
-0.000858913
-0.000766258
-0.00067048
-0.000572023
-0.000471257
-0.000368512
-0.000264306
-0.000159009
-5.3056e-05
5.24949e-05
0.000157294
0.000261458
0.000364542
0.000466122
0.000565829
0.000663269
0.000757957
0.000849595
0.000937771
0.00102217
0.00110241
0.00117822
0.00124927
0.00131526
0.00137594
0.00143114
0.00148059
0.0015241
0.00156155
0.00159274
0.0016176
0.00163602
0.00164796
0.00165338
0.00165224
0.00164462
0.00163051
0.00161003
0.00158321
0.00155021
0.00151116
0.00146624
0.00141558
0.00135943
0.00129808
0.00123164
0.00116047
0.00108481
0.00100496
0.000921297
0.000834063
0.000743642
0.000650331
0.000554563
0.000456678
0.000357035
0.000256026
0.000154044
5.14784e-05
-5.12878e-05
-0.000153853
-0.000255857
-0.000356855
-0.000456477
-0.000554372
-0.000650161
-0.00074343
-0.000833872
-0.000921127
-0.00100482
-0.00108466
-0.0011603
-0.00123148
-0.00129791
-0.00135932
-0.00141547
-0.00146608
-0.00151097
-0.00155003
-0.00158307
-0.00160987
-0.00163038
-0.00164448
-0.00165213
-0.00165322
-0.00164784
-0.00163589
-0.00161745
-0.00159261
-0.00156141
-0.00152398
-0.00148052
-0.00143105
-0.00137589
-0.00131516
-0.00124916
-0.00117814
-0.00110235
-0.00102213
-0.000937729
-0.000849563
-0.000757904
-0.000663216
-0.000565807
-0.000466122
-0.000364521
-0.000261416
-0.000157294
-5.24843e-05
5.19125e-05
0.000155505
0.00025844
0.000360328
0.000460754
0.000559285
0.000655561
0.000749179
0.00083977
0.000926908
0.0010103
0.00108961
0.0011645
0.00123471
0.00129991
0.00135987
0.00141438
0.0014632
0.00150618
0.00154317
0.00157394
0.00159847
0.00161664
0.00162841
0.00163373
0.00163256
0.00162497
0.001611
0.00159073
0.00156419
0.00153156
0.00149295
0.00144853
0.00139848
0.00134298
0.00128232
0.00121668
0.00114634
0.0010716
0.000992712
0.000910031
0.000823867
0.000734547
0.000642379
0.000547787
0.000451056
0.000352662
0.000252892
0.000152159
5.08432e-05
-5.06632e-05
-0.000151958
-0.000252723
-0.000352482
-0.000450897
-0.000547564
-0.000642189
-0.000734346
-0.000823687
-0.000909872
-0.000992564
-0.00107143
-0.00114618
-0.00121653
-0.00128217
-0.00134284
-0.00139832
-0.00144837
-0.00149276
-0.0015314
-0.00156404
-0.00159059
-0.00161088
-0.00162483
-0.00163245
-0.00163357
-0.00162826
-0.00161649
-0.00159833
-0.00157382
-0.00154303
-0.00150609
-0.0014631
-0.00141429
-0.00135978
-0.0012998
-0.00123461
-0.00116443
-0.00108956
-0.00101024
-0.000926866
-0.000839727
-0.000749158
-0.000655551
-0.000559275
-0.000460722
-0.000360307
-0.000258398
-0.000155473
-5.19125e-05
5.12561e-05
0.000153599
0.000255285
0.000355944
0.000455121
0.000552488
0.000647546
0.000740032
0.000829478
0.000915547
0.0009979
0.00107623
0.00115018
0.00121948
0.00128387
0.00134307
0.00139685
0.00144505
0.00148746
0.00152392
0.00155432
0.00157851
0.0015964
0.00160796
0.00161317
0.00161199
0.00160446
0.00159062
0.00157059
0.00154434
0.00151208
0.00147393
0.00143004
0.00138056
0.00132579
0.00126588
0.00120105
0.00113161
0.00105779
0.000979922
0.0008983
0.000813205
0.000725039
0.000634089
0.000540672
0.000445211
0.000348078
0.00024961
0.0001502
5.02079e-05
-5.00067e-05
-0.000149999
-0.000249419
-0.000347887
-0.000445052
-0.000540502
-0.000633877
-0.000724848
-0.000813046
-0.00089813
-0.000979763
-0.00105763
-0.00113145
-0.0012009
-0.0012657
-0.00132564
-0.00138043
-0.00142989
-0.00147374
-0.00151191
-0.00154418
-0.00157043
-0.00159051
-0.00160433
-0.00161185
-0.00161303
-0.00160784
-0.00159627
-0.00157836
-0.00155417
-0.00152381
-0.00148737
-0.00144495
-0.00139677
-0.00134296
-0.00128376
-0.00121941
-0.0011501
-0.00107619
-0.000997847
-0.000915473
-0.000829446
-0.00074
-0.000647557
-0.000552456
-0.000455111
-0.000355923
-0.000255243
-0.000153588
-5.12773e-05
5.06102e-05
0.000151629
0.000252013
0.00035136
0.000449277
0.000545383
0.000639235
0.000730502
0.000818816
0.000903731
0.000985036
0.00106232
0.0011353
0.00120368
0.00126719
0.00132561
0.00137866
0.00142619
0.001468
0.00150395
0.00153391
0.00155774
0.00157539
0.00158673
0.00159181
0.00159062
0.00158316
0.00156949
0.00154963
0.00152369
0.00149186
0.00145416
0.00141083
0.001362
0.00130791
0.00124878
0.00118482
0.00111632
0.00104345
0.000966613
0.000886092
0.000802161
0.000715171
0.000625417
0.000533313
0.000439165
0.000343345
0.00024619
0.000148135
4.95197e-05
-4.93079e-05
-0.000147945
-0.000246042
-0.000343144
-0.000438954
-0.000533133
-0.000625269
-0.000714981
-0.000801981
-0.000885922
-0.000966454
-0.00104328
-0.00111614
-0.00118465
-0.00124864
-0.00130777
-0.00136184
-0.00141066
-0.00145398
-0.00149169
-0.00152358
-0.00154947
-0.00156933
-0.00158304
-0.00159049
-0.0015917
-0.00158659
-0.00157522
-0.0015576
-0.00153375
-0.00150383
-0.0014679
-0.0014261
-0.00137856
-0.0013255
-0.00126712
-0.00120361
-0.00113525
-0.00106224
-0.000984962
-0.000903678
-0.000818753
-0.000730471
-0.000639224
-0.000545394
-0.000449277
-0.000351349
-0.000251982
-0.000151608
-5.06102e-05
4.99432e-05
0.000149597
0.000248625
0.000346659
0.000443221
0.000538035
0.000630658
0.000720677
0.000807741
0.000891555
0.000971716
0.00104794
0.00111989
0.00118734
0.00124997
0.00130755
0.00135984
0.0014067
0.00144789
0.00148333
0.00151282
0.00153624
0.00155363
0.0015648
0.00156975
0.00156854
0.00156112
0.00154758
0.00152796
0.00150239
0.00147094
0.00143374
0.00139098
0.00134279
0.00128945
0.00123115
0.00116803
0.00110045
0.00102868
0.00095287
0.00087346
0.000790737
0.000704975
0.000616513
0.0005257
0.000432876
0.000338432
0.000242686
0.000146007
4.87997e-05
-4.86091e-05
-0.000145838
-0.000242506
-0.000338241
-0.000432675
-0.00052552
-0.000616333
-0.000704784
-0.000790557
-0.000873312
-0.0009527
-0.00102848
-0.0011003
-0.00116789
-0.00123095
-0.00128931
-0.00134264
-0.0013908
-0.00143357
-0.00147078
-0.00150223
-0.00152783
-0.00154746
-0.001561
-0.00156842
-0.00156965
-0.00156462
-0.00155348
-0.00153613
-0.00151268
-0.0014832
-0.00144779
-0.00140658
-0.00135975
-0.00130744
-0.00124989
-0.00118725
-0.00111983
-0.00104788
-0.000971653
-0.000891481
-0.00080772
-0.000720613
-0.000630605
-0.000538035
-0.000443263
-0.000346659
-0.000248594
-0.000149554
-4.9922e-05
4.92126e-05
0.0001475
0.000245153
0.000341799
0.000437027
0.000530497
0.000621796
0.000710534
0.000796391
0.000879008
0.000958015
0.00103315
0.00110405
0.0011705
0.00123223
0.00128895
0.00134054
0.00138666
0.00142722
0.00146207
0.0014911
0.0015142
0.00153124
0.0015422
0.00154705
0.00154581
0.00153847
0.00152506
0.00150572
0.00148045
0.00144941
0.00141272
0.00137056
0.00132307
0.00127045
0.00121296
0.00115078
0.00108418
0.0010134
0.000938777
0.000860501
0.000778974
0.000694482
0.000607323
0.000517865
0.000426439
0.000333392
0.000239064
0.000143826
4.80691e-05
-4.78891e-05
-0.000143636
-0.000238874
-0.00033318
-0.000426248
-0.000517696
-0.000607153
-0.000694292
-0.000778815
-0.000860342
-0.000938576
-0.00101324
-0.001084
-0.0011506
-0.0012128
-0.00127032
-0.00132291
-0.0013704
-0.00141257
-0.00144925
-0.0014803
-0.00150555
-0.00152493
-0.00153835
-0.0015457
-0.00154693
-0.00154206
-0.00153109
-0.00151407
-0.00149099
-0.00146196
-0.00142709
-0.00138655
-0.0013404
-0.00128887
-0.00123214
-0.00117045
-0.00110401
-0.00103305
-0.000957962
-0.000878934
-0.000796349
-0.000710512
-0.000621765
-0.000530465
-0.000437016
-0.000341788
-0.0002451
-0.00014749
-4.92232e-05
4.85032e-05
0.00014534
0.000241584
0.000336823
0.000430663
0.000522757
0.000612712
0.000700189
0.000784765
0.000866144
0.000943997
0.001018
0.00108782
0.00115329
0.00121407
0.00126992
0.00132068
0.00136614
0.00140602
0.00144033
0.00146888
0.00149157
0.00150834
0.00151909
0.00152381
0.00152254
0.00151526
0.00150203
0.00148291
0.001458
0.00142739
0.0013912
0.00134964
0.00130285
0.00125101
0.00119436
0.0011331
0.00106749
0.000997826
0.000924282
0.000847234
0.000766978
0.000683725
0.000597931
0.000509861
0.000419821
0.000328215
0.000235369
0.000141603
4.7328e-05
-4.71268e-05
-0.000141391
-0.000235168
-0.000328056
-0.000419641
-0.00050966
-0.000597741
-0.000683577
-0.000766777
-0.000847044
-0.000924102
-0.000997646
-0.00106734
-0.00113295
-0.00119419
-0.00125088
-0.0013027
-0.00134948
-0.00139105
-0.0014272
-0.00145784
-0.00148278
-0.00150188
-0.00151513
-0.00152243
-0.0015237
-0.00151893
-0.00150816
-0.00149146
-0.00146878
-0.00144022
-0.00140594
-0.00136599
-0.00132059
-0.00126981
-0.00121398
-0.00115322
-0.00108779
-0.0010179
-0.000943944
-0.000866091
-0.000784712
-0.000700136
-0.00061268
-0.000522746
-0.000430642
-0.000336801
-0.000241563
-0.000145309
-4.85032e-05
4.77727e-05
0.00014317
0.000237932
0.00033174
0.000424194
0.000514869
0.000603479
0.000689601
0.000772907
0.000853026
0.000929682
0.00100252
0.00107128
0.00113573
0.00119557
0.00125054
0.00130047
0.00134516
0.00138444
0.00141818
0.00144622
0.00146851
0.00148497
0.00149549
0.00150013
0.00149881
0.00149161
0.00147853
0.00145966
0.00143512
0.00140492
0.00136926
0.00132835
0.00128224
0.00123118
0.0011754
0.0011151
0.00105051
0.000981902
0.000909533
0.000833703
0.000754696
0.000672798
0.000588349
0.000501687
0.000413098
0.000322963
0.000231579
0.000139337
4.65762e-05
-4.63645e-05
-0.000139146
-0.000231388
-0.000322762
-0.000412918
-0.000501496
-0.00058818
-0.000672618
-0.000754495
-0.000833512
-0.000909364
-0.000981743
-0.00105033
-0.00111492
-0.00117527
-0.00123106
-0.00128209
-0.00132818
-0.0013691
-0.00140474
-0.00143495
-0.00145953
-0.00147838
-0.00149148
-0.0014987
-0.00149999
-0.00149534
-0.00148482
-0.00146841
-0.00144611
-0.00141805
-0.00138434
-0.00134507
-0.00130034
-0.00125042
-0.00119545
-0.00113567
-0.00107123
-0.00100244
-0.000929629
-0.000852994
-0.000772843
-0.000689548
-0.000603447
-0.000514848
-0.000424152
-0.00033173
-0.000237942
-0.000143138
-4.77727e-05
4.70209e-05
0.000140915
0.000234258
0.000326605
0.000417598
0.000506875
0.000594098
0.000678855
0.000760837
0.000839706
0.000915134
0.000986836
0.0010545
0.00111789
0.00117676
0.00123081
0.00127996
0.00132389
0.00136251
0.00139568
0.00142323
0.00144511
0.00146123
0.00147155
0.00147606
0.00147474
0.00146758
0.00145467
0.00143607
0.00141186
0.00138209
0.00134702
0.00130671
0.00126131
0.00121106
0.00115617
0.00109681
0.00103327
0.000965734
0.000894562
0.00081996
0.000742255
0.000661702
0.00057864
0.000493397
0.000406269
0.000317616
0.000227757
0.000137039
4.57927e-05
-4.55915e-05
-0.000136849
-0.000227566
-0.000317436
-0.000406078
-0.000493185
-0.000578449
-0.000661512
-0.000742054
-0.00081979
-0.000894372
-0.000965575
-0.00103308
-0.00109665
-0.00115603
-0.00121092
-0.00126117
-0.00130655
-0.00134684
-0.00138192
-0.00141169
-0.00143594
-0.00145452
-0.00146743
-0.0014746
-0.00147594
-0.0014714
-0.0014611
-0.00144499
-0.00142311
-0.00139557
-0.00136241
-0.00132379
-0.0012798
-0.00123073
-0.00117667
-0.00111782
-0.00105446
-0.000986751
-0.000915081
-0.000839643
-0.000760763
-0.000678802
-0.000594077
-0.000506865
-0.000417577
-0.000326595
-0.000234236
-0.000140915
-4.70209e-05
4.62798e-05
0.000138702
0.000230509
0.000321364
0.000410959
0.000498786
0.00058459
0.000667981
0.000748639
0.000826228
0.000900438
0.000970954
0.0010375
0.00109987
0.00115774
0.00121091
0.00125919
0.00130239
0.00134034
0.00137291
0.00139997
0.00142141
0.00143725
0.00144737
0.00145173
0.00145037
0.0014433
0.00143054
0.00141221
0.00138835
0.00135906
0.00132448
0.00128481
0.00124016
0.00119073
0.00113673
0.0010783
0.00101583
0.000949439
0.000879432
0.000806058
0.000729666
0.00065049
0.000568804
0.000485
0.000399365
0.000312227
0.000223892
0.000134689
4.50516e-05
-4.48292e-05
-0.000134519
-0.000223712
-0.000312036
-0.000399164
-0.00048481
-0.000568624
-0.000650278
-0.000729486
-0.000805878
-0.000879252
-0.000949259
-0.00101565
-0.00107817
-0.00113655
-0.00119056
-0.00124
-0.00128466
-0.00132433
-0.00135889
-0.00138818
-0.00141206
-0.00143041
-0.00144314
-0.00145025
-0.0014516
-0.00144722
-0.00143712
-0.00142132
-0.00139986
-0.00137279
-0.00134023
-0.00130227
-0.00125905
-0.00121081
-0.00115766
-0.00109978
-0.00103745
-0.00097089
-0.000900385
-0.000826175
-0.000748597
-0.000667938
-0.000584559
-0.000498744
-0.000410917
-0.000321375
-0.000230499
-0.00013868
-4.62904e-05
4.55386e-05
0.000136446
0.00022674
0.000316134
0.000404204
0.000490612
0.000575029
0.000657054
0.000736358
0.000812675
0.000885615
0.000954956
0.00102043
0.00108171
0.00113856
0.00119083
0.00123828
0.00128071
0.00131797
0.00134999
0.00137653
0.0013976
0.00141308
0.00142297
0.00142723
0.00142585
0.00141883
0.00140627
0.00138818
0.00136468
0.00133582
0.00130185
0.00126276
0.00121885
0.00117026
0.00111712
0.00105972
0.000998292
0.000933017
0.000864143
0.000792082
0.000717003
0.000639171
0.000558904
0.000476562
0.00039242
0.000306785
0.000219985
0.000132338
4.42363e-05
-4.40351e-05
-0.000132158
-0.000219794
-0.000306573
-0.000392197
-0.000476371
-0.000558745
-0.000638991
-0.000716812
-0.000791891
-0.000864027
-0.000932806
-0.00099808
-0.00105955
-0.00111695
-0.00117007
-0.00121869
-0.00126263
-0.00130167
-0.00133568
-0.00136451
-0.00138803
-0.00140611
-0.00141867
-0.00142574
-0.00142711
-0.00142282
-0.00141298
-0.00139748
-0.00137643
-0.00134985
-0.00131788
-0.0012806
-0.00123817