/*--------------------------------*- C++ -*----------------------------------*\
  =========                 |
  \\      /  F ield         | OpenFOAM: The Open Source CFD Toolbox
   \\    /   O peration     | Website:  https://openfoam.org
    \\  /    A nd           | Version:  7
     \\/     M anipulation  |
\*---------------------------------------------------------------------------*/
FoamFile
{
    version     2.0;
    format      ascii;
    class       volScalarField;
    location    "0.023";
    object      gradTy;
}
// * * * * * * * * * * * * * * * * * * * * * * * * * * * * * * * * * * * * * //

dimensions      [0 -1 0 1 0 0 0];

internalField   nonuniform List<scalar> 
10000
(
0.00287057
0.00288275
0.00290684
0.00294289
0.00299105
0.00305134
0.00312378
0.00320835
0.00330508
0.00341395
0.00353496
0.00366811
0.00381335
0.00397058
0.0041397
0.00432047
0.00451275
0.00471625
0.00493063
0.00515555
0.00539053
0.00563507
0.00588857
0.00615041
0.00641992
0.00669639
0.00697906
0.00726716
0.00755985
0.00785623
0.00815531
0.00845591
0.00875664
0.0090559
0.00935187
0.00964244
0.00992543
0.0101987
0.0104603
0.0107084
0.0109418
0.0111593
0.0113597
0.0115413
0.0117016
0.0118381
0.0119486
0.0120317
0.0120869
0.0121144
0.0121144
0.0120869
0.0120317
0.0119486
0.0118382
0.0117016
0.0115413
0.0113597
0.0111593
0.0109418
0.0107084
0.0104603
0.0101987
0.00992544
0.00964243
0.00935187
0.0090559
0.00875666
0.00845592
0.00815533
0.00785625
0.00755985
0.00726716
0.00697906
0.00669638
0.00641992
0.0061504
0.00588858
0.0056351
0.00539056
0.00515556
0.00493065
0.00471623
0.00451273
0.00432045
0.00413966
0.00397058
0.00381336
0.00366812
0.00353498
0.00341393
0.00330507
0.00320834
0.00312376
0.00305137
0.00299105
0.00294289
0.00290684
0.00288286
0.00287073
0.0086044
0.00864067
0.00871303
0.00882138
0.00896602
0.00914694
0.00936429
0.00961806
0.00990831
0.0102351
0.0105983
0.010998
0.0114339
0.0119058
0.0124134
0.0129562
0.0135336
0.0141446
0.0147885
0.0154639
0.0161696
0.016904
0.0176654
0.0184518
0.0192613
0.0200918
0.0209408
0.0218063
0.0226856
0.0235761
0.0244747
0.0253781
0.0262822
0.0271822
0.0280724
0.0289465
0.0297979
0.03062
0.0314066
0.0321527
0.0328542
0.0335082
0.0341113
0.0346585
0.0351423
0.0355542
0.035887
0.0361367
0.0363024
0.0363848
0.0363848
0.0363024
0.0361367
0.035887
0.0355542
0.0351423
0.0346585
0.0341113
0.0335082
0.0328542
0.0321527
0.0314066
0.03062
0.029798
0.0289465
0.0280724
0.0271822
0.0262822
0.0253781
0.0244747
0.023576
0.0226856
0.0218063
0.0209408
0.0200917
0.0192613
0.0184518
0.0176654
0.016904
0.0161696
0.0154639
0.0147884
0.0141446
0.0135335
0.0129562
0.0124134
0.0119058
0.0114339
0.010998
0.0105983
0.0102351
0.00990831
0.00961805
0.00936426
0.00914694
0.00896595
0.00882124
0.00871289
0.00864081
0.00860473
0.0143165
0.0143767
0.0144973
0.0146781
0.0149193
0.0152211
0.0155834
0.0160067
0.0164908
0.0170358
0.0176417
0.0183085
0.0190358
0.0198233
0.0206705
0.0215765
0.0225402
0.0235605
0.0246357
0.0257638
0.0269424
0.0281692
0.0294411
0.030755
0.0321075
0.0334949
0.0349136
0.0363597
0.0378291
0.0393175
0.0408201
0.0423313
0.0438445
0.0453516
0.0468431
0.0483083
0.0497356
0.0511133
0.0524309
0.0536795
0.0548528
0.0559471
0.0569585
0.0578793
0.0586956
0.0593904
0.0599498
0.0603674
0.0606428
0.0607793
0.0607793
0.0606428
0.0603674
0.0599498
0.0593904
0.0586956
0.0578793
0.0569585
0.0559471
0.0548528
0.0536795
0.0524309
0.0511133
0.0497356
0.0483083
0.0468431
0.0453516
0.0438444
0.0423313
0.0408201
0.0393175
0.037829
0.0363597
0.0349136
0.0334949
0.0321074
0.030755
0.0294411
0.0281692
0.0269424
0.0257637
0.0246356
0.0235605
0.0225402
0.0215764
0.0206705
0.0198233
0.0190358
0.0183085
0.0176417
0.0170358
0.0164908
0.0160067
0.0155835
0.015221
0.0149193
0.014678
0.0144971
0.0143767
0.0143166
0.0199923
0.0200765
0.0202452
0.0204985
0.0208364
0.0212592
0.021767
0.02236
0.0230384
0.0238023
0.0246518
0.0255866
0.0266065
0.0277111
0.0288995
0.0301707
0.0315233
0.0329554
0.0344649
0.036049
0.0377046
0.0394279
0.0412148
0.0430608
0.0449612
0.0469108
0.0489044
0.0509366
0.0530019
0.0550945
0.057208
0.0593351
0.0614668
0.063592
0.0656971
0.0677663
0.0697823
0.0717277
0.0735862
0.0753446
0.0769946
0.0785341
0.0799626
0.0812716
0.0824382
0.0834303
0.0842235
0.0848094
0.0851919
0.08538
0.08538
0.0851919
0.0848094
0.0842235
0.0834303
0.0824382
0.0812717
0.0799626
0.0785341
0.0769946
0.0753447
0.0735862
0.0717277
0.0697823
0.0677663
0.0656971
0.063592
0.0614668
0.0593351
0.057208
0.0550944
0.0530018
0.0509366
0.0489044
0.0469108
0.0449612
0.0430608
0.0412147
0.0394278
0.0377045
0.036049
0.0344649
0.0329554
0.0315232
0.0301707
0.0288994
0.027711
0.0266065
0.0255866
0.0246518
0.0238023
0.0230384
0.02236
0.0217669
0.0212592
0.0208365
0.0204986
0.0202452
0.0200764
0.0199921
0.0256165
0.025725
0.025942
0.0262679
0.0267027
0.0272467
0.0279003
0.0286636
0.029537
0.0305207
0.0316147
0.0328189
0.034133
0.0355565
0.0370885
0.0387277
0.0404724
0.0423202
0.0442683
0.0463134
0.0484511
0.0506768
0.0529851
0.0553701
0.0578254
0.0603443
0.0629201
0.0655459
0.0682149
0.07092
0.0736539
0.0764079
0.0791713
0.0819301
0.0846665
0.0873589
0.089983
0.0925139
0.0949285
0.0972067
0.0993369
0.101323
0.103179
0.1049
0.10645
0.107765
0.108801
0.109552
0.110033
0.110266
0.110266
0.110033
0.109552
0.108801
0.107765
0.10645
0.1049
0.103179
0.101323
0.0993369
0.0972068
0.0949285
0.092514
0.089983
0.0873589
0.0846665
0.0819301
0.0791713
0.0764079
0.0736539
0.07092
0.0682148
0.0655459
0.06292
0.0603443
0.0578253
0.05537
0.0529851
0.0506768
0.0484511
0.0463133
0.0442683
0.0423202
0.0404724
0.0387277
0.0370885
0.0355565
0.034133
0.0328189
0.0316147
0.0305207
0.029537
0.0286636
0.0279002
0.0272467
0.0267027
0.0262679
0.025942
0.0257249
0.0256164
0.0311745
0.0313073
0.0315728
0.0319714
0.0325034
0.033169
0.0339687
0.034903
0.0359722
0.0371766
0.0385164
0.0399916
0.0416019
0.0433469
0.0452255
0.0472361
0.049377
0.0516453
0.0540376
0.0565497
0.0591767
0.0619125
0.0647504
0.067683
0.0707023
0.0737999
0.0769673
0.0801961
0.0834783
0.0868061
0.0901716
0.0935659
0.0969774
0.10039
0.103782
0.107125
0.110384
0.113526
0.116519
0.119331
0.121938
0.124361
0.126648
0.128821
0.13082
0.132501
0.133788
0.134688
0.135247
0.135511
0.135511
0.135247
0.134688
0.133788
0.132501
0.13082
0.128821
0.126648
0.124362
0.121939
0.119331
0.116519
0.113526
0.110384
0.107125
0.103782
0.10039
0.0969774
0.0935659
0.0901716
0.0868061
0.0834783
0.0801961
0.0769673
0.0737998
0.0707023
0.067683
0.0647504
0.0619124
0.0591766
0.0565497
0.0540376
0.0516452
0.0493769
0.0472361
0.0452254
0.0433469
0.041602
0.0399916
0.0385164
0.0371766
0.0359722
0.034903
0.0339687
0.0331689
0.0325033
0.0319714
0.0315728
0.0313072
0.0311745
0.0366514
0.0368084
0.0371225
0.037594
0.0382233
0.0390109
0.0399573
0.0410632
0.042329
0.0437553
0.0453424
0.0470904
0.0489993
0.0510685
0.0532971
0.0556835
0.0582254
0.06092
0.0637632
0.0667502
0.0698749
0.0731303
0.0765082
0.0799994
0.0835941
0.0872819
0.0910524
0.0948955
0.0988018
0.102763
0.106772
0.110822
0.114901
0.118993
0.123072
0.127101
0.131033
0.134821
0.138426
0.141797
0.144866
0.147679
0.150375
0.153064
0.155656
0.157781
0.159315
0.160319
0.160907
0.161175
0.161175
0.160907
0.160319
0.159315
0.157781
0.155656
0.153064
0.150376
0.147679
0.144866
0.141797
0.138426
0.134821
0.131033
0.127101
0.123072
0.118993
0.114901
0.110822
0.106772
0.102763
0.0988018
0.0948954
0.0910523
0.0872819
0.0835941
0.0799994
0.0765082
0.0731303
0.0698749
0.0667502
0.0637632
0.06092
0.0582255
0.0556835
0.0532971
0.0510686
0.0489994
0.0470904
0.0453424
0.0437553
0.0423289
0.0410631
0.0399573
0.0390108
0.0382232
0.0375939
0.0371224
0.0368083
0.0366513
0.0420317
0.042213
0.0425757
0.0431203
0.0438471
0.044757
0.0458506
0.0471287
0.048592
0.0502415
0.0520775
0.0541004
0.0563105
0.0587072
0.0612897
0.0640564
0.0670053
0.0701328
0.0734347
0.0769056
0.0805384
0.084325
0.0882553
0.0923185
0.0965025
0.100795
0.105182
0.109652
0.114195
0.118801
0.123465
0.128184
0.13295
0.137751
0.142559
0.147325
0.151982
0.156455
0.16073
0.16473
0.168216
0.171284
0.174282
0.177577
0.181135
0.18383
0.185552
0.186547
0.187068
0.187286
0.187286
0.187068
0.186547
0.185552
0.18383
0.181135
0.177577
0.174282
0.171284
0.168216
0.16473
0.16073
0.156455
0.151982
0.147325
0.142559
0.137751
0.13295
0.128184
0.123465
0.118801
0.114195
0.109652
0.105182
0.100795
0.0965025
0.0923185
0.0882553
0.084325
0.0805385
0.0769056
0.0734348
0.0701328
0.0670053
0.0640565
0.0612897
0.0587072
0.0563105
0.0541004
0.0520774
0.0502414
0.048592
0.0471287
0.0458506
0.044757
0.0438471
0.0431202
0.0425756
0.0422129
0.0420316
0.0472999
0.0475055
0.047917
0.0485347
0.0493593
0.0503917
0.0516329
0.0530838
0.0547457
0.0566194
0.0587059
0.0610059
0.0635198
0.0662474
0.0691882
0.0723406
0.0757026
0.0792707
0.0830404
0.0870056
0.0911586
0.0954898
0.0999876
0.104639
0.109429
0.114342
0.119363
0.124476
0.129667
0.134928
0.140256
0.145654
0.151126
0.156668
0.162258
0.16783
0.173293
0.17847
0.183493
0.188368
0.192174
0.195153
0.19809
0.202027
0.207682
0.211056
0.212724
0.213458
0.213739
0.213826
0.213826
0.213739
0.213458
0.212724
0.211056
0.207682
0.202027
0.19809
0.195153
0.192174
0.188368
0.183493
0.17847
0.173293
0.16783
0.162258
0.156668
0.151126
0.145654
0.140256
0.134928
0.129667
0.124476
0.119363
0.114342
0.109429
0.104639
0.0999876
0.0954898
0.0911586
0.0870056
0.0830404
0.0792707
0.0757026
0.0723407
0.0691882
0.0662475
0.0635198
0.061006
0.0587059
0.0566194
0.0547456
0.0530838
0.0516328
0.0503917
0.0493593
0.0485346
0.0479169
0.0475055
0.0472999
0.0524404
0.0526703
0.0531304
0.0538213
0.0547438
0.0558989
0.057288
0.0589123
0.0607734
0.0628726
0.0652112
0.0677904
0.070611
0.0736731
0.0769765
0.0805202
0.0843022
0.0883191
0.0925665
0.0970379
0.101725
0.106616
0.1117
0.116958
0.122375
0.12793
0.133604
0.139377
0.145231
0.151154
0.157148
0.163226
0.169414
0.175722
0.182168
0.18864
0.195092
0.200844
0.206614
0.213288
0.217179
0.219284
0.221119
0.224986
0.23674
0.240223
0.241066
0.241056
0.240843
0.240688
0.240688
0.240843
0.241056
0.241066
0.240223
0.23674
0.224986
0.22112
0.219284
0.217179
0.213288
0.206614
0.200844
0.195092
0.18864
0.182168
0.175722
0.169414
0.163226
0.157148
0.151154
0.145231
0.139377
0.133604
0.12793
0.122375
0.116958
0.111699
0.106616
0.101725
0.0970379
0.0925665
0.0883192
0.0843022
0.0805203
0.0769766
0.0736731
0.070611
0.0677904
0.0652112
0.0628726
0.0607734
0.0589123
0.0572879
0.0558988
0.0547437
0.0538213
0.0531303
0.0526702
0.0524403
0.0574371
0.0576913
0.0582
0.058964
0.0599842
0.0612621
0.0627993
0.0645973
0.0666582
0.0689839
0.0715761
0.0744365
0.0775664
0.0809666
0.0846372
0.0885779
0.092787
0.0972615
0.101997
0.106988
0.112224
0.117695
0.123384
0.129272
0.13534
0.141562
0.147915
0.154372
0.160905
0.167494
0.174146
0.180886
0.187782
0.194847
0.202263
0.209691
0.217815
0.223428
0.229068
0.241231
0.244213
0.24393
0.242364
0.240308
0.23815
0.236114
0.234345
0.232942
0.231972
0.231477
0.231477
0.231972
0.232942
0.234345
0.236114
0.23815
0.240308
0.242364
0.24393
0.244213
0.241231
0.229068
0.223428
0.217815
0.209691
0.202262
0.194847
0.187782
0.180886
0.174146
0.167494
0.160905
0.154372
0.147915
0.141562
0.13534
0.129272
0.123384
0.117695
0.112224
0.106988
0.101997
0.0972616
0.092787
0.088578
0.0846373
0.0809666
0.0775664
0.0744365
0.0715761
0.0689838
0.0666582
0.0645973
0.0627992
0.0612621
0.0599842
0.0589639
0.0581999
0.0576912
0.057437
0.0622737
0.062552
0.0631092
0.0639461
0.065064
0.0664645
0.0681496
0.0701215
0.0723826
0.0749354
0.0777823
0.0809256
0.0843673
0.088109
0.0921514
0.0964947
0.101138
0.106079
0.111314
0.116838
0.122641
0.128711
0.13503
0.141577
0.148323
0.155243
0.162307
0.169484
0.176721
0.183974
0.191267
0.198604
0.206203
0.213849
0.222579
0.230286
0.243299
0.246238
0.245256
0.242445
0.238601
0.23395
0.228185
0.219816
0.203519
0.195816
0.191334
0.188469
0.1867
0.185845
0.185845
0.1867
0.188469
0.191334
0.195816
0.203519
0.219816
0.228185
0.23395
0.238601
0.242445
0.245256
0.246238
0.243299
0.230286
0.222579
0.213849
0.206203
0.198604
0.191267
0.183974
0.176721
0.169484
0.162307
0.155243
0.148323
0.141577
0.13503
0.128711
0.122641
0.116838
0.111315
0.106079
0.101138
0.0964947
0.0921514
0.088109
0.0843674
0.0809257
0.0777823
0.0749353
0.0723825
0.0701214
0.0681495
0.0664645
0.0650639
0.0639461
0.0631092
0.062552
0.0622736
0.0669337
0.0672362
0.0678415
0.068751
0.069966
0.0714887
0.0733213
0.0754668
0.077928
0.0807083
0.0838107
0.0872384
0.090994
0.0950801
0.0994983
0.10425
0.109334
0.114751
0.120497
0.126568
0.132956
0.139649
0.146627
0.153863
0.161323
0.168974
0.17679
0.184745
0.192737
0.200635
0.208573
0.216296
0.224819
0.232014
0.244175
0.245838
0.242951
0.237064
0.227365
0.208783
0.197881
0.189162
0.18068
0.171312
0.160519
0.152513
0.146915
0.143107
0.140717
0.13956
0.13956
0.140717
0.143107
0.146915
0.152513
0.160519
0.171312
0.18068
0.189162
0.197881
0.208783
0.227365
0.237064
0.242951
0.245838
0.244175
0.232014
0.224819
0.216296
0.208573
0.200635
0.192737
0.184745
0.17679
0.168974
0.161323
0.153863
0.146627
0.139649
0.132956
0.126568
0.120497
0.114751
0.109334
0.10425
0.0994984
0.0950802
0.0909941
0.0872384
0.0838108
0.0807083
0.077928
0.0754668
0.0733213
0.0714887
0.069966
0.068751
0.0678415
0.0672361
0.0669337
0.0714005
0.0717268
0.07238
0.0733615
0.074673
0.076317
0.0782965
0.0806148
0.0832757
0.0862832
0.0896413
0.093354
0.0974253
0.101858
0.106656
0.11182
0.117352
0.123252
0.129519
0.136151
0.143143
0.150484
0.158156
0.166123
0.174337
0.18275
0.191353
0.200195
0.209079
0.217494
0.226342
0.233441
0.245022
0.24548
0.240366
0.230036
0.209697
0.195788
0.182432
0.167672
0.1552
0.144348
0.134262
0.124423
0.114908
0.106971
0.100868
0.0964835
0.0936569
0.0922724
0.0922724
0.0936569
0.0964834
0.100868
0.106971
0.114908
0.124423
0.134262
0.144348
0.1552
0.167672
0.182432
0.195788
0.209697
0.230036
0.240366
0.24548
0.245022
0.233441
0.226342
0.217494
0.209079
0.200195
0.191353
0.182749
0.174337
0.166123
0.158156
0.150484
0.143143
0.136151
0.129519
0.123252
0.117352
0.11182
0.106656
0.101858
0.0974254
0.0933541
0.0896413
0.0862832
0.0832757
0.0806148
0.0782965
0.076317
0.074673
0.0733615
0.07238
0.0717268
0.0714005
0.0756572
0.0760071
0.0767076
0.0777602
0.0791672
0.0809314
0.0830565
0.0855464
0.0884057
0.0916396
0.0952529
0.0992509
0.103639
0.108421
0.1136
0.119182
0.125166
0.131556
0.138353
0.145557
0.15317
0.161187
0.169593
0.178348
0.187372
0.196561
0.205911
0.215846
0.226139
0.234179
0.246125
0.246372
0.240451
0.228617
0.205866
0.188323
0.170248
0.154181
0.139107
0.124461
0.111073
0.0989271
0.0877467
0.0773493
0.0678472
0.0597132
0.0532135
0.0484081
0.0452572
0.0437009
0.0437009
0.0452571
0.048408
0.0532135
0.0597131
0.0678471
0.0773492
0.0877466
0.0989271
0.111073
0.124461
0.139107
0.154181
0.170248
0.188323
0.205865
0.228617
0.240451
0.246372
0.246125
0.234179
0.226139
0.215846
0.205911
0.196561
0.187372
0.178348
0.169593
0.161187
0.15317
0.145557
0.138353
0.131556
0.125166
0.119182
0.113601
0.108421
0.103639
0.099251
0.095253
0.0916396
0.0884058
0.0855464
0.0830565
0.0809315
0.0791673
0.0777602
0.0767076
0.0760071
0.0756572
0.0796869
0.08006
0.080807
0.0819298
0.0834308
0.0853136
0.0875823
0.0902419
0.0932979
0.0967563
0.100624
0.104906
0.10961
0.114742
0.120306
0.126308
0.132749
0.139634
0.146966
0.154749
0.162994
0.171709
0.180898
0.190527
0.200476
0.210452
0.220135
0.231399
0.245719
0.247233
0.241711
0.229576
0.205886
0.186753
0.166391
0.147356
0.128986
0.111757
0.0955127
0.0801335
0.0658299
0.0526527
0.0405465
0.029466
0.0194931
0.0108865
0.00392322
-0.00126919
-0.00468824
-0.00637968
-0.0063797
-0.00468827
-0.00126922
0.00392315
0.0108865
0.019493
0.0294659
0.0405464
0.0526526
0.0658298
0.0801334
0.0955126
0.111757
0.128986
0.147356
0.166391
0.186753
0.205886
0.229576
0.24171
0.247233
0.245719
0.231399
0.220135
0.210452
0.200476
0.190527
0.180898
0.171709
0.162994
0.154749
0.146966
0.139634
0.132749
0.126308
0.120306
0.114742
0.10961
0.104906
0.100624
0.0967564
0.093298
0.090242
0.0875824
0.0853137
0.0834309
0.0819298
0.0808071
0.08006
0.0796869
0.0834726
0.0838684
0.084661
0.0858524
0.0874457
0.0894449
0.0918548
0.0946814
0.0979312
0.101611
0.10573
0.110295
0.115315
0.120796
0.126746
0.133171
0.140073
0.147456
0.155324
0.163685
0.172559
0.181979
0.19199
0.202626
0.213801
0.224892
0.233042
0.24417
0.242211
0.231429
0.208007
0.188421
0.167
0.146334
0.125782
0.105896
0.086733
0.0684753
0.0511636
0.0348225
0.0195356
0.00536712
-0.00763337
-0.019492
-0.0302059
-0.0395718
-0.0471346
-0.0527224
-0.0563679
-0.0581603
-0.0581603
-0.0563679
-0.0527225
-0.0471347
-0.0395719
-0.030206
-0.019492
-0.00763345
0.00536704
0.0195355
0.0348224
0.0511635
0.0684753
0.0867329
0.105896
0.125782
0.146334
0.167
0.188421
0.208007
0.231429
0.242211
0.24417
0.233042
0.224892
0.213801
0.202626
0.19199
0.181979
0.172559
0.163685
0.155324
0.147456
0.140073
0.133171
0.126746
0.120796
0.115315
0.110295
0.10573
0.101612
0.0979313
0.0946815
0.0918549
0.089445
0.0874458
0.0858525
0.084661
0.0838684
0.0834727
0.0869973
0.0874152
0.0882522
0.0895106
0.0911938
0.0933065
0.0958544
0.0988443
0.102284
0.106182
0.110548
0.115392
0.120725
0.126555
0.132892
0.139741
0.147108
0.154992
0.163395
0.172324
0.181803
0.191891
0.2027
0.214436
0.227471
0.242544
0.243248
0.234135
0.21163
0.192354
0.17071
0.149321
0.127555
0.105973
0.084653
0.0638365
0.0436771
0.0243293
0.00590458
-0.0115009
-0.0278531
-0.043079
-0.0569629
-0.0696161
-0.081287
-0.0918781
-0.100221
-0.106178
-0.109965
-0.1118
-0.1118
-0.109965
-0.106178
-0.100221
-0.0918782
-0.0812871
-0.0696162
-0.056963
-0.0430791
-0.0278532
-0.0115009
0.00590449
0.0243292
0.043677
0.0638364
0.0846529
0.105973
0.127555
0.149321
0.17071
0.192354
0.21163
0.234135
0.243248
0.242543
0.227471
0.214436
0.2027
0.19189
0.181803
0.172324
0.163395
0.154992
0.147108
0.139742
0.132892
0.126555
0.120725
0.115393
0.110548
0.106182
0.102284
0.0988444
0.0958546
0.0933067
0.0911939
0.0895107
0.0882523
0.0874153
0.0869974
0.0902441
0.0906835
0.0915634
0.0928866
0.094657
0.0968798
0.0995615
0.10271
0.106334
0.110445
0.115053
0.120171
0.125812
0.131988
0.138711
0.145989
0.153826
0.162219
0.171158
0.180637
0.190671
0.201322
0.212736
0.22521
0.239378
0.238671
0.227378
0.201586
0.17807
0.155874
0.13336
0.110774
0.0880795
0.0654776
0.0431228
0.0211981
-0.000136012
-0.020708
-0.0403632
-0.0588873
-0.0763971
-0.0929138
-0.107586
-0.1208
-0.133539
-0.146535
-0.155806
-0.161923
-0.165638
-0.167399
-0.167399
-0.165638
-0.161923
-0.155806
-0.146535
-0.133539
-0.1208
-0.107586
-0.0929139
-0.0763972
-0.0588874
-0.0403633
-0.0207081
-0.000136108
0.021198
0.0431227
0.0654775
0.0880795
0.110774
0.13336
0.155874
0.17807
0.201586
0.227378
0.238671
0.239378
0.22521
0.212736
0.201322
0.190671
0.180637
0.171158
0.162219
0.153826
0.145989
0.138711
0.131988
0.125812
0.120171
0.115053
0.110445
0.106334
0.10271
0.0995616
0.0968799
0.0946571
0.0928868
0.0915636
0.0906836
0.0902442
0.0931965
0.0936564
0.0945777
0.0959632
0.0978174
0.100146
0.102956
0.106258
0.11006
0.114376
0.119218
0.124603
0.130545
0.137062
0.144169
0.151879
0.160197
0.169115
0.178605
0.188628
0.199165
0.210245
0.221973
0.234563
0.230266
0.209488
0.190097
0.167
0.143404
0.119898
0.0962438
0.0724698
0.0486196
0.0248166
0.0012185
-0.0220003
-0.0447057
-0.0666803
-0.0878035
-0.107351
-0.126017
-0.144696
-0.159786
-0.172594
-0.185681
-0.205082
-0.21472
-0.22025
-0.223452
-0.224948
-0.224948
-0.223452
-0.22025
-0.21472
-0.205082
-0.185682
-0.172594
-0.159786
-0.144696
-0.126017
-0.107351
-0.0878036
-0.0666804
-0.0447058
-0.0220004
0.0012184
0.0248165
0.0486196
0.0724697
0.0962437
0.119898
0.143404
0.167
0.190097
0.209488
0.230266
0.234563
0.221973
0.210245
0.199165
0.188628
0.178605
0.169115
0.160197
0.151879
0.144169
0.137062
0.130545
0.124603
0.119219
0.114376
0.11006
0.106258
0.102957
0.100146
0.0978175
0.0959633
0.0945778
0.0936566
0.0931967
0.0958383
0.0963177
0.0972783
0.0987232
0.100657
0.103087
0.10602
0.109467
0.113439
0.117951
0.123018
0.128658
0.134891
0.141739
0.149224
0.157368
0.166184
0.175662
0.185751
0.196348
0.207367
0.218779
0.230622
0.224904
0.20173
0.179171
0.156752
0.133115
0.108822
0.0842175
0.0593676
0.0343341
0.00917726
-0.0160125
-0.0410559
-0.0657298
-0.0900504
-0.113574
-0.136914
-0.156812
-0.175764
-0.200225
-0.214446
-0.2243
-0.231718
-0.23744
-0.241801
-0.24497
-0.24704
-0.248064
-0.248064
-0.24704
-0.24497
-0.241801
-0.23744
-0.231718
-0.2243
-0.214446
-0.200225
-0.175764
-0.156812
-0.136914
-0.113574
-0.0900505
-0.0657299
-0.0410561
-0.0160126
0.00917718
0.034334
0.0593675
0.0842174
0.108822
0.133114
0.156752
0.179171
0.20173
0.224904
0.230622
0.218779
0.207367
0.196348
0.185751
0.175662
0.166184
0.157368
0.149224
0.141739
0.134891
0.128658
0.123018
0.117951
0.113439
0.109467
0.10602
0.103087
0.100657
0.0987233
0.0972784
0.0963178
0.0958383
0.0981533
0.0986513
0.0996491
0.10115
0.103159
0.105684
0.108733
0.112317
0.11645
0.121146
0.126425
0.132306
0.138814
0.145977
0.153827
0.1624
0.171731
0.181831
0.192628
0.203896
0.215436
0.22715
0.22093
0.196792
0.172825
0.14893
0.124817
0.100049
0.0746905
0.0488902
0.0227541
-0.00362864
-0.0302117
-0.056997
-0.0837379
-0.109879
-0.136287
-0.160772
-0.189614
-0.20739
-0.220196
-0.230034
-0.23753
-0.242512
-0.243527
-0.235246
-0.234165
-0.234883
-0.235772
-0.236301
-0.236301
-0.235772
-0.234883
-0.234165
-0.235246
-0.243527
-0.242512
-0.23753
-0.230034
-0.220196
-0.20739
-0.189615
-0.160772
-0.136287
-0.109879
-0.083738
-0.0569971
-0.0302118
-0.00362871
0.022754
0.0488901
0.0746905
0.100049
0.124817
0.14893
0.172825
0.196792
0.22093
0.22715
0.215436
0.203896
0.192628
0.181831
0.171731
0.1624
0.153827
0.145977
0.138814
0.132306
0.126425
0.121146
0.11645
0.112317
0.108733
0.105684
0.103159
0.10115
0.0996492
0.0986514
0.0981534
0.100127
0.100642
0.101674
0.103228
0.105307
0.107921
0.111078
0.11479
0.119071
0.123939
0.129413
0.135517
0.142279
0.149731
0.157917
0.166892
0.176736
0.187539
0.199281
0.211426
0.223599
0.217552
0.193242
0.168751
0.14406
0.119093
0.0936957
0.0677014
0.0410993
0.0139671
-0.0135749
-0.0413837
-0.0694222
-0.0980804
-0.127105
-0.153878
-0.184593
-0.203786
-0.217408
-0.226987
-0.231657
-0.22626
-0.227213
-0.228783
-0.228727
-0.226117
-0.224996
-0.224891
-0.225135
-0.225338
-0.225338
-0.225135
-0.224891
-0.224996
-0.226117
-0.228727
-0.228783
-0.227213
-0.22626
-0.231657
-0.226987
-0.217409
-0.203786
-0.184593
-0.153878
-0.127105
-0.0980805
-0.0694223
-0.0413837
-0.0135749
0.0139671
0.0410992
0.0677014
0.0936957
0.119092
0.14406
0.168751
0.193242
0.217552
0.223599
0.211426
0.199281
0.187539
0.176736
0.166892
0.157917
0.149732
0.142279
0.135517
0.129413
0.123939
0.119072
0.11479
0.111078
0.107921
0.105307
0.103228
0.101674
0.100642
0.100127
0.101743
0.102274
0.103339
0.104941
0.107085
0.109781
0.113037
0.116867
0.121285
0.126308
0.13196
0.138264
0.145252
0.15296
0.161434
0.17074
0.181013
0.192551
0.205784
0.219193
0.214076
0.190302
0.165972
0.14112
0.115754
0.0898359
0.0632941
0.0360538
0.00809913
-0.0205168
-0.0496396
-0.0789439
-0.10808
-0.138898
-0.172857
-0.1941
-0.208439
-0.216413
-0.213305
-0.215561
-0.217264
-0.21639
-0.216536
-0.21694
-0.216742
-0.215759
-0.21507
-0.214813
-0.214798
-0.214841
-0.214841
-0.214798
-0.214813
-0.21507
-0.215759
-0.216742
-0.21694
-0.216536
-0.21639
-0.217265
-0.215561
-0.213305
-0.216414
-0.20844
-0.1941
-0.172857
-0.138898
-0.10808
-0.078944
-0.0496396
-0.0205168
0.0080991
0.0360538
0.0632941
0.0898358
0.115754
0.14112
0.165972
0.190302
0.214076
0.219193
0.205784
0.192551
0.181013
0.17074
0.161434
0.152961
0.145252
0.138264
0.13196
0.126308
0.121285
0.116867
0.113037
0.109781
0.107086
0.104941
0.103339
0.102274
0.101743
0.102989
0.103535
0.104629
0.106275
0.108479
0.111249
0.114596
0.118532
0.123072
0.128235
0.134043
0.140524
0.147709
0.155635
0.164336
0.173848
0.184261
0.196114
0.212368
0.209576
0.187294
0.163842
0.139431
0.114183
0.088147
0.0613225
0.0336792
0.00517697
-0.0242158
-0.054503
-0.0855659
-0.116749
-0.145168
-0.176721
-0.195328
-0.205254
-0.202699
-0.204181
-0.204075
-0.20493
-0.205695
-0.205747
-0.205851
-0.20595
-0.205794
-0.205359
-0.204966
-0.204743
-0.204658
-0.204639
-0.204639
-0.204658
-0.204743
-0.204966
-0.205359
-0.205794
-0.205951
-0.205851
-0.205747
-0.205696
-0.20493
-0.204075
-0.204181
-0.202699
-0.205254
-0.195328
-0.176721
-0.145168
-0.116749
-0.085566
-0.054503
-0.0242159
0.00517694
0.0336792
0.0613225
0.088147
0.114183
0.139431
0.163842
0.187294
0.209576
0.212368
0.196114
0.184261
0.173848
0.164336
0.155635
0.147709
0.140524
0.134044
0.128235
0.123072
0.118532
0.114596
0.111249
0.108479
0.106275
0.104629
0.103535
0.102989
0.103851
0.10441
0.10553
0.107216
0.109474
0.112311
0.115739
0.119769
0.124418
0.129703
0.135648
0.142279
0.149632
0.157746
0.166648
0.176285
0.186306
0.195526
0.202083
0.183526
0.161914
0.138548
0.113907
0.0881829
0.0614472
0.0337152
0.00497841
-0.0247876
-0.0556487
-0.0877609
-0.121455
-0.157437
-0.179274
-0.191496
-0.190512
-0.192931
-0.193145
-0.193764
-0.194113
-0.194623
-0.195077
-0.195288
-0.195412
-0.195458
-0.195369
-0.195158
-0.194938
-0.194781
-0.194696
-0.194662
-0.194662
-0.194696
-0.194781
-0.194938
-0.195158
-0.195369
-0.195458
-0.195412
-0.195289
-0.195077
-0.194623
-0.194113
-0.193764
-0.193145
-0.192931
-0.190513
-0.191496
-0.179274
-0.157437
-0.121455
-0.0877609
-0.0556487
-0.0247876
0.00497837
0.0337151
0.0614472
0.0881829
0.113907
0.138548
0.161914
0.183526
0.202083
0.195526
0.186306
0.176285
0.166648
0.157746
0.149632
0.142279
0.135648
0.129703
0.124418
0.119769
0.115739
0.112311
0.109474
0.107216
0.105531
0.10441
0.103851
0.104317
0.104888
0.106031
0.107752
0.110057
0.112954
0.116453
0.120567
0.125311
0.130701
0.136758
0.143511
0.151
0.159283
0.168446
0.178569
0.189393
0.197847
0.180984
0.160761
0.138495
0.114705
0.0896141
0.0633141
0.035832
0.00716854
-0.0226707
-0.0536689
-0.0858781
-0.119521
-0.15518
-0.176253
-0.187005
-0.183502
-0.182503
-0.183025
-0.183404
-0.183837
-0.184214
-0.184598
-0.184929
-0.185148
-0.18528
-0.185333
-0.185301
-0.185201
-0.185081
-0.184982
-0.184918
-0.184889
-0.184889
-0.184918
-0.184982
-0.185081
-0.185201
-0.185301
-0.185334
-0.18528
-0.185148
-0.184929
-0.184598
-0.184214
-0.183837
-0.183404
-0.183025
-0.182503
-0.183502
-0.187005
-0.176253
-0.15518
-0.119521
-0.0858781
-0.053669
-0.0226707
0.00716849
0.035832
0.0633141
0.0896141
0.114705
0.138495
0.160761
0.180984
0.197847
0.189393
0.178569
0.168446
0.159283
0.151
0.143512
0.136758
0.130701
0.125311
0.120568
0.116453
0.112954
0.110057
0.107752
0.106031
0.104888
0.104317
0.104375
0.104956
0.10612
0.107871
0.110217
0.113166
0.116728
0.120915
0.125741
0.131219
0.137368
0.144209
0.151781
0.160156
0.169507
0.180383
0.195091
0.189553
0.163473
0.140244
0.116779
0.0923151
0.0666525
0.0397186
0.0114576
-0.0181765
-0.0491695
-0.0813839
-0.114755
-0.149386
-0.167473
-0.169396
-0.173009
-0.173206
-0.173173
-0.17347
-0.173815
-0.174179
-0.174521
-0.17484
-0.175113
-0.175316
-0.175449
-0.175518
-0.175527
-0.175489
-0.17543
-0.175374
-0.175334
-0.175314
-0.175313
-0.175334
-0.175374
-0.17543
-0.175489
-0.175527
-0.175518
-0.17545
-0.175316
-0.175113
-0.174841
-0.174521
-0.174179
-0.173816
-0.17347
-0.173173
-0.173206
-0.173009
-0.169396
-0.167473
-0.149386
-0.114755
-0.0813839
-0.0491695
-0.0181765
0.0114576
0.0397186
0.0666525
0.092315
0.116779
0.140244
0.163473
0.189553
0.195091
0.180383
0.169507
0.160156
0.151781
0.144209
0.137368
0.131219
0.125741
0.120915
0.116728
0.113166
0.110217
0.107871
0.10612
0.104956
0.104375
0.104015
0.104604
0.105785
0.107562
0.109943
0.112936
0.116552
0.120804
0.125701
0.131256
0.137478
0.144377
0.151967
0.160267
0.169266
0.178599
0.1851
0.165858
0.143319
0.120146
0.096217
0.0712489
0.0450583
0.0175146
-0.0115122
-0.0421653
-0.0744856
-0.108018
-0.142487
-0.159767
-0.159924
-0.16103
-0.162619
-0.163329
-0.163708
-0.164063
-0.16441
-0.164745
-0.165057
-0.165338
-0.165577
-0.165764
-0.165897
-0.165979
-0.166014
-0.166014
-0.165994
-0.165969
-0.165948
-0.165936
-0.165936
-0.165948
-0.165969
-0.165994
-0.166014
-0.166014
-0.165979
-0.165897
-0.165764
-0.165577
-0.165338
-0.165057
-0.164745
-0.16441
-0.164063
-0.163708
-0.163329
-0.162619
-0.16103
-0.159924
-0.159767
-0.142487
-0.108018
-0.0744856
-0.0421654
-0.0115123
0.0175146
0.0450583
0.0712489
0.096217
0.120146
0.143319
0.165858
0.1851
0.178599
0.169266
0.160267
0.151967
0.144377
0.137478
0.131256
0.125701
0.120804
0.116553
0.112936
0.109943
0.107562
0.105785
0.104604
0.104015
0.103227
0.103823
0.105016
0.106814
0.109222
0.112253
0.115916
0.120223
0.125186
0.130812
0.137104
0.144054
0.15165
0.15989
0.168913
0.179876
0.164905
0.145672
0.123985
0.100962
0.0768247
0.0515071
0.0248882
-0.00316707
-0.0328505
-0.0645172
-0.0986571
-0.133819
-0.151374
-0.151256
-0.151596
-0.152356
-0.153287
-0.153967
-0.154453
-0.154853
-0.155207
-0.155529
-0.15582
-0.156077
-0.156295
-0.15647
-0.156601
-0.15669
-0.156743
-0.156767
-0.156772
-0.156768
-0.156761
-0.156756
-0.156756
-0.156761
-0.156768
-0.156772
-0.156767
-0.156743
-0.156691
-0.156601
-0.15647
-0.156295
-0.156077
-0.15582
-0.155529
-0.155207
-0.154853
-0.154453
-0.153967
-0.153287
-0.152356
-0.151596
-0.151256
-0.151374
-0.133819
-0.0986571
-0.0645172
-0.0328506
-0.00316711
0.0248882
0.051507
0.0768247
0.100962
0.123985
0.145672
0.164905
0.179876
0.168913
0.15989
0.15165
0.144054
0.137104
0.130813
0.125187
0.120223
0.115916
0.112253
0.109223
0.106814
0.105016
0.103823
0.103227
0.102004
0.102603
0.103806
0.105617
0.108046
0.111105
0.114806
0.119164
0.124189
0.12989
0.136262
0.143282
0.150892
0.158943
0.166839
0.171137
0.149182
0.128129
0.106149
0.083029
0.0587213
0.0331455
0.00620252
-0.0222053
-0.0522246
-0.0844512
-0.121901
-0.141183
-0.141911
-0.142446
-0.143011
-0.143677
-0.144376
-0.144975
-0.145462
-0.145868
-0.146221
-0.146531
-0.146805
-0.147044
-0.147247
-0.147413
-0.147541
-0.147636
-0.147699
-0.147738
-0.147759
-0.147768
-0.147772
-0.147772
-0.147772
-0.147772
-0.147768
-0.147759
-0.147738
-0.147699
-0.147636
-0.147541
-0.147413
-0.147247
-0.147044
-0.146805
-0.146531
-0.146221
-0.145869
-0.145462
-0.144976
-0.144376
-0.143677
-0.143011
-0.142446
-0.141911
-0.141183
-0.121901
-0.0844512