/*--------------------------------*- C++ -*----------------------------------*\
  =========                 |
  \\      /  F ield         | OpenFOAM: The Open Source CFD Toolbox
   \\    /   O peration     | Website:  https://openfoam.org
    \\  /    A nd           | Version:  7
     \\/     M anipulation  |
\*---------------------------------------------------------------------------*/
FoamFile
{
    version     2.0;
    format      ascii;
    class       volScalarField;
    location    "0.016";
    object      gradTy;
}
// * * * * * * * * * * * * * * * * * * * * * * * * * * * * * * * * * * * * * //

dimensions      [0 -1 0 1 0 0 0];

internalField   nonuniform List<scalar> 
10000
(
2.58345e-05
2.60304e-05
2.6491e-05
2.7158e-05
2.80474e-05
2.9175e-05
3.05461e-05
3.21396e-05
3.39925e-05
3.60995e-05
3.84553e-05
4.10811e-05
4.39769e-05
4.71533e-05
5.06208e-05
5.43636e-05
5.84135e-05
6.27546e-05
6.73868e-05
7.23366e-05
7.75776e-05
8.31151e-05
8.89332e-05
9.50477e-05
0.000101427
0.00010806
0.000114969
0.0001221
0.000129453
0.000136971
0.000144689
0.000152535
0.00016047
0.00016847
0.000176432
0.000184357
0.000192149
0.000199741
0.000207052
0.000214061
0.000220689
0.000226904
0.000232638
0.000237889
0.000242516
0.000246476
0.000249684
0.000252119
0.000253734
0.000254549
0.000254549
0.000253723
0.000252119
0.000249695
0.000246481
0.000242527
0.000237884
0.000232659
0.000226894
0.000220679
0.000214061
0.000207057
0.00019973
0.000192144
0.000184351
0.000176437
0.000168448
0.00016046
0.000152514
0.000144684
0.000136981
0.000129437
0.000122095
0.000114964
0.000108066
0.000101427
9.50318e-05
8.89279e-05
8.31098e-05
7.75723e-05
7.23207e-05
6.73815e-05
6.2744e-05
5.84029e-05
5.4353e-05
5.06102e-05
4.71533e-05
4.39822e-05
4.10705e-05
3.84606e-05
3.60942e-05
3.39978e-05
3.21555e-05
3.05461e-05
2.91962e-05
2.80527e-05
2.71527e-05
2.6491e-05
2.60516e-05
2.58292e-05
7.74718e-05
7.81441e-05
7.94676e-05
8.14846e-05
8.41686e-05
8.75673e-05
9.16596e-05
9.64718e-05
0.00010202
0.000108346
0.000115424
0.000123317
0.000132031
0.000141576
0.000151989
0.000163255
0.00017541
0.00018847
0.000202436
0.000217296
0.000233056
0.000249705
0.000267244
0.000285641
0.000304858
0.000324864
0.000345621
0.000367088
0.000389206
0.000411917
0.000435126
0.000458764
0.000482698
0.000506785
0.000530873
0.000554754
0.000578254
0.000601134
0.000623236
0.000644333
0.000664323
0.000683063
0.000700422
0.00071624
0.000730275
0.00074225
0.000751953
0.000759259
0.000764135
0.000766554
0.000766549
0.000764124
0.000759249
0.000751943
0.000742239
0.000730264
0.000716246
0.000700422
0.000683053
0.000664317
0.000644327
0.00062321
0.000601134
0.000578238
0.000554759
0.000530862
0.00050678
0.000482682
0.000458753
0.000435121
0.000411902
0.000389201
0.000367072
0.000345616
0.000324848
0.000304847
0.000285635
0.000267244
0.000249716
0.000233056
0.00021728
0.000202414
0.00018846
0.000175405
0.000163239
0.000151968
0.000141566
0.000132026
0.000123317
0.000115429
0.00010833
0.000102036
9.64718e-05
9.16596e-05
8.75567e-05
8.41686e-05
8.14634e-05
7.94623e-05
7.81282e-05
7.74612e-05
0.000129088
0.00013021
0.000132439
0.000135806
0.000140311
0.000145976
0.00015281
0.000160852
0.000170158
0.000180714
0.000192584
0.000205781
0.00022035
0.000236333
0.000253745
0.000272623
0.000292994
0.000314869
0.000338263
0.000363171
0.000389603
0.00041754
0.000446953
0.00047779
0.000510036
0.00054362
0.00057846
0.000614491
0.000651628
0.000689776
0.000728803
0.000768524
0.0008088
0.000849352
0.000889935
0.000930196
0.0009698
0.00100838
0.00104559
0.00108114
0.00111479
0.00114633
0.00117564
0.00120238
0.00122618
0.00124649
0.0012629
0.0012752
0.00128335
0.00128739
0.00128739
0.00128334
0.0012752
0.00126291
0.00124649
0.00122618
0.00120238
0.00117562
0.00114633
0.00111478
0.00108112
0.00104558
0.00100837
0.0009698
0.000930196
0.00088993
0.000849346
0.000808784
0.000768513
0.000728787
0.00068976
0.000651617
0.00061448
0.000578439
0.000543605
0.00051003
0.00047778
0.000446942
0.000417529
0.000389598
0.000363171
0.000338241
0.000314847
0.000292962
0.000272596
0.000253708
0.000236296
0.000220324
0.000205765
0.000192573
0.000180699
0.000170142
0.000160846
0.000152799
0.000145938
0.00014029
0.000135801
0.000132434
0.000130184
0.000129067
0.000180699
0.00018226
0.000185394
0.000190117
0.000196453
0.000204405
0.000214029
0.000225358
0.00023844
0.000253295
0.000270002
0.000288595
0.000309103
0.000331619
0.000356177
0.000382795
0.00041152
0.000442379
0.000475403
0.000510591
0.000547924
0.000587401
0.000628959
0.000672565
0.000718167
0.00076566
0.000814962
0.000865964
0.000918533
0.000972558
0.00102786
0.00108422
0.00114138
0.00119903
0.00125676
0.0013141
0.00137049
0.00142542
0.00147838
0.00152891
0.00157666
0.00162148
0.00166322
0.00170159
0.00173585
0.0017651
0.00178857
0.001806
0.00181743
0.00182308
0.0018231
0.00181746
0.00180601
0.00178857
0.00176509
0.00173586
0.0017016
0.00166323
0.00162149
0.00157667
0.00152891
0.00147838
0.00142543
0.00137049
0.00131409
0.00125675
0.00119904
0.00114138
0.0010842
0.00102784
0.000972531
0.000918512
0.000865943
0.000814952
0.00076566
0.000718162
0.000672565
0.000628954
0.00058738
0.000547914
0.000510576
0.000475387
0.000442352
0.000411483
0.000382748
0.000356146
0.000331598
0.000309082
0.000288563
0.000269976
0.000253284
0.000238429
0.000225358
0.000214019
0.000204394
0.000196438
0.000190111
0.000185373
0.000182244
0.000180677
0.000232235
0.000234258
0.000238313
0.000244406
0.000252591
0.000262887
0.000275344
0.000290003
0.000306917
0.000326155
0.000347797
0.000371869
0.000398476
0.000427662
0.000459499
0.000494043
0.000531338
0.00057144
0.000614364
0.000660103
0.000708686
0.000760059
0.000814184
0.000871004
0.000930407
0.00099231
0.00105658
0.0011231
0.00119171
0.00126222
0.00133447
0.00140819
0.00148306
0.00155869
0.00163454
0.00170992
0.00178414
0.0018564
0.00192599
0.00199224
0.00205466
0.00211324
0.00216814
0.00221915
0.00226512
0.00230425
0.00233527
0.00235793
0.00237258
0.00237971
0.00237971
0.00237258
0.00235794
0.00233528
0.00230424
0.00226512
0.00221914
0.00216816
0.00211326
0.00205468
0.00199225
0.001926
0.00185641
0.00178413
0.00170991
0.00163452
0.00155868
0.00148306
0.00140818
0.00133445
0.0012622
0.00119168
0.00112308
0.00105657
0.000992299
0.000930392
0.000870993
0.000814184
0.000760053
0.000708681
0.000660103
0.000614348
0.00057143
0.000531328
0.000494027
0.000459489
0.000427651
0.00039846
0.000371853
0.000347786
0.000326171
0.000306922
0.000289998
0.000275328
0.000262887
0.000252591
0.000244406
0.000238286
0.000234236
0.000232214
0.000283687
0.000286191
0.000291173
0.00029868
0.000308749
0.000321438
0.000336764
0.000354822
0.00037567
0.000399381
0.000426047
0.000455751
0.000488595
0.000524642
0.00056397
0.000606693
0.000652845
0.000702481
0.000755643
0.000812352
0.000872603
0.000936363
0.00100356
0.00107415
0.00114796
0.00122491
0.00130482
0.00138757
0.00147293
0.00156073
0.00165077
0.00174279
0.00183642
0.00193119
0.00202643
0.00212126
0.00221467
0.00230562
0.00239309
0.00247607
0.00255374
0.00262641
0.00269511
0.00276033
0.00282021
0.00287079
0.00290992
0.00293764
0.00295508
0.00296342
0.00296341
0.00295506
0.00293765
0.00290993
0.00287081
0.00282021
0.00276033
0.00269512
0.00262641
0.00255376
0.00247611
0.00239312
0.00230563
0.00221468
0.00212124
0.00202641
0.00193118
0.00183642
0.00174278
0.00165077
0.00156073
0.00147292
0.00138755
0.00130482
0.00122489
0.00114795
0.00107413
0.00100356
0.000936347
0.000872587
0.000812336
0.000755638
0.000702466
0.000652829
0.000606693
0.000563965
0.000524631
0.00048859
0.000455751
0.000426042
0.000399381
0.000375654
0.000354817
0.00033677
0.000321423
0.000308738
0.000298674
0.000291157
0.000286159
0.000283677
0.000335033
0.000337993
0.000343948
0.000352911
0.000364912
0.00038
0.000398291
0.000419821
0.000444692
0.000473004
0.000504848
0.000540338
0.000579582
0.000622707
0.000669807
0.000720973
0.0007763
0.000835852
0.000899692
0.000967852
0.00104032
0.00111705
0.00119799
0.00128301
0.00137201
0.0014648
0.0015612
0.00166102
0.00176405
0.00187008
0.00197893
0.00209036
0.00220404
0.0023194
0.00243568
0.00255176
0.00266623
0.00277763
0.00288477
0.002986
0.00307925
0.0031655
0.00324819
0.00332996
0.00340822
0.00347285
0.00352038
0.00355226
0.0035714
0.00358031
0.00358029
0.00357139
0.00355226
0.00352037
0.00347285
0.00340822
0.00332996
0.00324818
0.00316549
0.00307925
0.00298601
0.00288478
0.00277764
0.00266624
0.00255177
0.00243569
0.0023194
0.00220403
0.00209035
0.00197892
0.00187008
0.00176402
0.001661
0.00156119
0.00146478
0.00137199
0.001283
0.00119797
0.00111704
0.00104031
0.000967846
0.000899697
0.000835868
0.0007763
0.000720973
0.000669802
0.000622702
0.000579582
0.000540328
0.000504826
0.000472983
0.000444682
0.000419805
0.00039828
0.000379995
0.000364891
0.000352885
0.000343927
0.000337971
0.000335002
0.000386205
0.000389651
0.000396591
0.00040701
0.000420997
0.000438604
0.000459897
0.000484995
0.000513995
0.000547035
0.00058422
0.000625687
0.00067157
0.000722021
0.000777174
0.000837144
0.000902037
0.000971976
0.001047
0.00112717
0.00121247
0.0013029
0.00139835
0.00149868
0.00160376
0.00171335
0.00182725
0.00194517
0.00206693
0.0021923
0.00232111
0.00245324
0.00258839
0.00272614
0.00286559
0.00300527
0.00314322
0.00327717
0.00340652
0.0035289
0.00363755
0.00373473
0.00382937
0.00393098
0.00403842
0.00412112
0.00417597
0.00420936
0.00422791
0.00423609
0.0042361
0.00422791
0.00420935
0.00417596
0.00412111
0.00403843
0.003931
0.00382936
0.00373472
0.00363754
0.0035289
0.00340651
0.00327718
0.00314322
0.00300526
0.0028656
0.00272612
0.00258838
0.00245323
0.00232111
0.0021923
0.00206692
0.00194516
0.00182722
0.00171333
0.00160372
0.00149867
0.00139833
0.0013029
0.00121247
0.00112716
0.001047
0.00097197
0.000902053
0.000837149
0.000777179
0.000722032
0.000671575
0.000625682
0.00058422
0.000547019
0.000513995
0.000484979
0.000459875
0.000438578
0.000420975
0.000406978
0.00039656
0.00038964
0.000386178
0.000437164
0.000441119
0.000449028
0.000460966
0.000476985
0.00049715
0.000521555
0.000550317
0.000583579
0.000621489
0.000664185
0.000711831
0.000764622
0.000822697
0.000886229
0.00095539
0.00103032
0.00111114
0.00119794
0.00129078
0.00138969
0.00149464
0.00160552
0.00172218
0.00184441
0.00197196
0.00210454
0.00224182
0.00238352
0.00252945
0.00267948
0.00283361
0.00299188
0.00315401
0.0033193
0.00348568
0.00365053
0.0038088
0.00396374
0.00411512
0.0042378
0.00433776
0.00443567
0.00455913
0.0047272
0.00483172
0.00488799
0.00491658
0.00493019
0.00493558
0.00493558
0.00493019
0.00491656
0.004888
0.00483172
0.00472721
0.00455915
0.00443566
0.00433777
0.00423779
0.00411511
0.00396373
0.00380879
0.00365053
0.00348567
0.00331928
0.00315401
0.00299187
0.00283361
0.00267947
0.00252944
0.00238353
0.00224182
0.00210452
0.00197194
0.00184439
0.00172215
0.00160549
0.00149462
0.00138969
0.00129078
0.00119793
0.00111114
0.00103033
0.000955411
0.000886256
0.000822734
0.000764648
0.000711868
0.000664201
0.0006215
0.00058359
0.000550317
0.000521534
0.000497118
0.000476954
0.00046095
0.000449023
0.000441098
0.000437154
0.000487849
0.000492317
0.000501264
0.000514747
0.000532837
0.000555622
0.00058323
0.000615777
0.000653438
0.000696378
0.000744785
0.000798853
0.000858796
0.000924812
0.000997106
0.00107588
0.00116134
0.00125361
0.00135285
0.00145915
0.00157254
0.00169296
0.00182036
0.00195453
0.00209519
0.00224205
0.00239474
0.00255282
0.0027159
0.00288367
0.00305614
0.0032336
0.00341657
0.0036052
0.00379966
0.00399681
0.00419502
0.00437567
0.00455771
0.00476456
0.00489626
0.00497917
0.00505355
0.0051809
0.00551917
0.00563107
0.00566869
0.00567993
0.00568202
0.00568181
0.00568181
0.00568202
0.00567993
0.00566867
0.00563108
0.00551917
0.00518092
0.00505357
0.00497919
0.00489627
0.00476456
0.00455771
0.00437567
0.00419504
0.00399681
0.00379966
0.00360518
0.00341656
0.0032336
0.00305615
0.00288367
0.0027159
0.00255284
0.00239474
0.00224204
0.00209517
0.0019545
0.00182034
0.00169296
0.00157251
0.00145915
0.00135285
0.00125363
0.00116135
0.00107591
0.000997138
0.000924838
0.000858823
0.000798879
0.000744785
0.000696383
0.000653407
0.000615761
0.000583193
0.000555595
0.000532805
0.000514721
0.000501248
0.000492301
0.000487849
0.000538157
0.000543155
0.00055316
0.000568216
0.000588434
0.000613929
0.000644836
0.000681284
0.000723488
0.000771626
0.000825952
0.000886701
0.000954093
0.00102839
0.00110986
0.00119873
0.00129526
0.00139963
0.00151203
0.00163264
0.00176147
0.00189852
0.00204367
0.00219672
0.00235734
0.00252513
0.00269962
0.00288025
0.0030663
0.00325731
0.00345344
0.00365519
0.00386425
0.0040807
0.00430921
0.00454036
0.00479226
0.00497782
0.00516505
0.00552908
0.00564452
0.00567086
0.00566084
0.00563519
0.00560372
0.00557192
0.00554325
0.00552003
0.00550377
0.00549543
0.00549542
0.00550377
0.00552003
0.00554326
0.00557192
0.00560373
0.00563519
0.00566086
0.00567089
0.00564455
0.00552908
0.00516506
0.00497781
0.00479225
0.00454037
0.00430922
0.0040807
0.00386424
0.00365518
0.00345344
0.00325732
0.00306631
0.00288026
0.00269963
0.00252513
0.00235734
0.00219673
0.0020437
0.00189854
0.00176148
0.00163265
0.00151208
0.00139965
0.00129528
0.00119874
0.00110987
0.00102839
0.000954098
0.000886695
0.000825952
0.000771615
0.000723461
0.000681242
0.000644799
0.000613914
0.000588423
0.00056819
0.000553128
0.000543144
0.000538162
0.000588
0.000593521
0.000604586
0.000621288
0.000643703
0.000671978
0.000706251
0.000746728
0.000793612
0.000847181
0.000907628
0.000975311
0.00105047
0.00113345
0.0012245
0.00132399
0.00143218
0.00154934
0.00167575
0.00181158
0.00195696
0.00211189
0.00227626
0.00244979
0.00263207
0.00282265
0.00302098
0.00322636
0.00343747
0.00365317
0.00387406
0.00410009
0.0043369
0.00457839
0.00485229
0.00510123
0.00549599
0.00561997
0.00563892
0.00560847
0.0055492
0.00546644
0.00535118
0.00516248
0.00475553
0.00457631
0.00447882
0.00441941
0.00438373
0.00436673
0.00436673
0.00438374
0.00441943
0.00447885
0.00457632
0.00475555
0.0051625
0.00535122
0.00546646
0.00554922
0.00560849
0.00563894
0.00561998
0.00549598
0.00510123
0.00485227
0.00457837
0.00433688
0.00410008
0.00387406
0.00365317
0.00343748
0.00322636
0.00302099
0.00282266
0.00263209
0.0024498
0.00227627
0.0021119
0.00195697
0.0018116
0.00167578
0.00154937
0.00143219
0.001324
0.0012245
0.00113343
0.00105047
0.0009753
0.000907638
0.000847155
0.000793617
0.000746718
0.000706245
0.000671978
0.000643708
0.000621299
0.000604596
0.000593516
0.000588
0.000637223
0.00064329
0.000655476
0.000673852
0.000698511
0.000729634
0.00076738
0.000812013
0.000863757
0.000922879
0.000989721
0.0010646
0.00114786
0.00123986
0.00134099
0.00145163
0.0015721
0.00170282
0.00184408
0.00199616
0.00215927
0.00233351
0.00251875
0.00271462
0.00292059
0.00313605
0.00336063
0.00359377
0.00383285
0.00407441
0.00432203
0.00456854
0.00484115
0.00508203
0.00546094
0.00555904
0.00553651
0.00543429
0.00522943
0.00478367
0.00454388
0.00436033
0.0041798
0.0039713
0.00371947
0.0035373
0.00341387
0.0033321
0.00328175
0.00325763
0.00325763
0.00328173
0.0033321
0.00341388
0.00353732
0.00371949
0.00397132
0.00417982
0.00436035
0.00454387
0.00478368
0.00522943
0.00543429
0.00553651
0.00555903
0.00546092
0.00508202
0.00484114
0.00456854
0.00432203
0.00407443
0.00383287
0.00359377
0.00336064
0.00313606
0.0029206
0.00271463
0.00251876
0.00233352
0.00215931
0.00199618
0.00184409
0.00170284
0.00157213
0.00145164
0.00134101
0.00123987
0.00114784
0.00106459
0.000989716
0.000922879
0.000863751
0.000812019
0.000767396
0.00072965
0.000698532
0.000673868
0.000655487
0.000643322
0.000637249
0.000685742
0.000692375
0.000705695
0.00072577
0.000752753
0.000786782
0.000828123
0.000877013
0.000933727
0.000998615
0.00107204
0.00115439
0.00124608
0.00134753
0.00145922
0.00158156
0.00171499
0.00186
0.00201702
0.00218643
0.0023686
0.0025637
0.00277169
0.00299212
0.00322408
0.00346661
0.00371987
0.00398535
0.00425788
0.0045238
0.00480728
0.00504919
0.00541772
0.00549022
0.00541612
0.00520404
0.00472314
0.00441674
0.00412467
0.003793
0.00352035
0.00328775
0.00307144
0.00285672
0.00264494
0.00246921
0.00233585
0.00224132
0.00218103
0.00215169
0.0021517
0.00218103
0.00224131
0.00233584
0.00246921
0.00264495
0.00285672
0.00307145
0.00328776
0.00352037
0.00379299
0.00412466
0.00441674
0.00472312
0.00520404
0.00541611
0.00549022
0.00541772
0.00504919
0.00480729
0.00452379
0.0042579
0.00398536
0.00371989
0.00346663
0.00322409
0.00299213
0.0027717
0.00256371
0.0023686
0.00218645
0.00201704
0.00186003
0.00171503
0.00158158
0.00145923
0.00134757
0.0012461
0.00115441
0.00107206
0.000998641
0.000933743
0.000877018
0.000828144
0.000786793
0.000752753
0.00072578
0.0007057
0.000692402
0.000685753
0.000733366
0.000740582
0.00075505
0.000776883
0.000806195
0.000843248
0.000888257
0.000941504
0.00100336
0.00107419
0.00115443
0.00124452
0.00134498
0.0014563
0.001579
0.00171362
0.0018607
0.00202079
0.00219444
0.00238226
0.0025848
0.00280247
0.00303543
0.00328315
0.00354397
0.00381551
0.00409805
0.00440326
0.00472521
0.00499346
0.00537438
0.00544553
0.00535573
0.005111
0.00457466
0.00418149
0.00377481
0.00342186
0.00309406
0.00277508
0.0024863
0.00222641
0.00198723
0.00176314
0.00155653
0.00137944
0.00123857
0.00113505
0.00106762
0.00103444
0.00103445
0.00106763
0.00113507
0.00123856
0.00137944
0.00155651
0.00176314
0.00198723
0.00222641
0.0024863
0.00277507
0.00309404
0.00342185
0.00377482
0.0041815
0.00457467
0.00511101
0.00535575
0.00544553
0.0053744
0.00499348
0.00472522
0.00440327
0.00409805
0.00381552
0.00354398
0.00328316
0.00303546
0.00280249
0.00258483
0.0023823
0.00219447
0.00202081
0.00186072
0.00171364
0.00157902
0.00145633
0.00134502
0.00124457
0.00115446
0.00107422
0.00100337
0.000941519
0.000888257
0.000843248
0.000806206
0.000776883
0.000755066
0.000740598
0.000733382
0.000779911
0.000787698
0.000803353
0.000826958
0.000858696
0.000898797
0.000947544
0.00100529
0.00107242
0.00114938
0.00123665
0.00133476
0.00144431
0.00156589
0.00170011
0.0018476
0.00200899
0.00218493
0.00237613
0.00258336
0.00280748
0.00304941
0.00330987
0.00358857
0.00388286
0.00418538
0.00448791
0.00484132
0.00528582
0.0053923
0.00531632
0.0050684
0.00451356
0.00408622
0.00362834
0.00320751
0.00280438
0.00243052
0.00208055
0.00175019
0.00144418
0.00116303
0.000904557
0.000666864
0.000451569
0.000265047
0.000114259
2.26581e-06
-7.11402e-05
-0.000107303
-0.000107319
-7.11402e-05
2.26581e-06
0.000114254
0.000265058
0.000451569
0.000666869
0.000904552
0.00116303
0.00144417
0.00175019
0.00208055
0.00243049
0.00280438
0.00320752
0.00362837
0.00408625
0.00451358
0.00506841
0.00531632
0.00539232
0.00528583
0.00484134
0.00448792
0.0041854
0.00388287
0.00358859
0.00330988
0.00304947
0.00280754
0.00258341
0.00237617
0.00218494
0.00200899
0.00184762
0.00170015
0.00156593
0.00144435
0.00133479
0.00123667
0.00114939
0.00107244
0.00100532
0.000947576
0.000898834
0.000858717
0.000826974
0.000803384
0.00078773
0.000779943
0.000825201
0.000833576
0.00085041
0.000875821
0.00091001
0.00095323
0.0010058
0.00106811
0.00114064
0.00122386
0.00131835
0.00142476
0.00154374
0.00167597
0.00182218
0.00198313
0.00215953
0.00235212
0.0025617
0.00278921
0.00303592
0.00330345
0.00359376
0.00390847
0.00424604
0.00459029
0.00486449
0.00522888
0.00524876
0.00503883
0.00449474
0.00406067
0.00358171
0.00312623
0.00267541
0.00224267
0.00182821
0.0014356
0.00106487
0.000715642
0.000389296
8.67468e-05
-0.000191318
-0.000446212
-0.000678394
-0.000882857
-0.00104788
-0.00116912
-0.0012477
-0.00128615
-0.00128615
-0.0012477
-0.00116911
-0.00104786
-0.000882868
-0.000678373
-0.000446222
-0.000191334
8.67468e-05
0.00038928
0.000715632
0.00106485
0.0014356
0.00182818
0.00224267
0.0026754
0.00312623
0.00358171
0.00406068
0.00449473
0.00503883
0.00524876
0.00522889
0.00486451
0.00459029
0.00424604
0.00390848
0.00359377
0.00330347
0.00303594
0.00278923
0.0025617
0.00235212
0.00215954
0.00198316
0.00182222
0.00167598
0.00154375
0.00142478
0.00131837
0.00122388
0.00114066
0.00106816
0.00100584
0.000953251
0.000910036
0.000875859
0.000850448
0.000833618
0.000825243
0.000869024
0.000878018
0.000896055
0.000923277
0.000959942
0.00100629
0.00106274
0.00112971
0.00120769
0.00129732
0.00139922
0.00151413
0.00164282
0.00178609
0.00194483
0.00211984
0.00231199
0.00252203
0.00275078
0.00299925
0.00326899
0.00356239
0.00388337
0.00423831
0.00463812
0.00510371
0.00519168
0.00502483
0.00450545
0.00408172
0.00360077
0.00313186
0.00265635
0.0021878
0.00172678
0.00127842
0.000845466
0.000430886
3.66024e-05
-0.000335769
-0.00068616
-0.00101329
-0.00131199
-0.00158575
-0.00184169
-0.00207766
-0.00226253
-0.00239293
-0.00247484
-0.00251419
-0.00251419
-0.00247483
-0.00239294
-0.00226255
-0.00207767
-0.00184172
-0.00158576
-0.00131201
-0.00101332
-0.000686171
-0.00033579
3.65865e-05
0.000430891
0.000845477
0.00127842
0.00172679
0.00218779
0.00265636
0.00313187
0.00360078
0.00408174
0.00450545
0.00502482
0.00519168
0.00510371
0.00463812
0.00423831
0.00388338
0.00356239
0.00326899
0.00299925
0.00275077
0.00252204
0.00231201
0.00211987
0.00194484
0.00178611
0.00164283
0.00151417
0.00139925
0.00129735
0.00120774
0.00112975
0.00106279
0.00100635
0.000959979
0.000923329
0.000896103
0.00087805
0.000869082
0.000911159
0.000920741
0.00093999
0.000969064
0.0010082
0.00105771
0.00111806
0.00118972
0.00127327
0.00136938
0.00147881
0.00160241
0.00174105
0.00189574
0.00206746
0.00225721
0.0024659
0.00269433
0.00294315
0.00321317
0.00350576
0.00382358
0.00417156
0.00455875
0.00500331
0.00505751
0.00483716
0.00423536
0.00370425
0.00321607
0.00272495
0.00223589
0.00174633
0.00126013
0.00077999
0.000309416
-0.000148559
-0.000590488
-0.00101328
-0.001412
-0.00179061
-0.00215027
-0.00246859
-0.00275636
-0.00304044
-0.00334093
-0.00355065
-0.00368528
-0.00376527
-0.00380266
-0.00380265
-0.00376528
-0.00368529
-0.00355065
-0.00334094
-0.00304046
-0.00275639
-0.00246859
-0.00215029
-0.00179061
-0.00141201
-0.00101327
-0.000590504
-0.000148554
0.000309426
0.000779996
0.00126015
0.00174635
0.0022359
0.00272496
0.00321607
0.00370424
0.00423534
0.00483716
0.00505751
0.00500332
0.00455876
0.00417157
0.0038236
0.00350577
0.00321317
0.00294316
0.00269434
0.00246592
0.00225723
0.00206748
0.00189577
0.00174107
0.00160242
0.00147884
0.00136941
0.0012733
0.00118975
0.00111811
0.00105777
0.00100824
0.000969112
0.000940037
0.000920788
0.000911212
0.000951345
0.000961525
0.000981976
0.00101288
0.0010545
0.00110722
0.00117146
0.00124781
0.00133694
0.00143958
0.00155661
0.00168902
0.00183782
0.00200422
0.0021894
0.00239456
0.00262077
0.00286881
0.003139
0.00343143
0.00374666
0.0040867
0.00445552
0.00486003
0.00482075
0.00434825
0.00392465
0.00341063
0.00289116
0.0023803
0.00186992
0.00135915
0.000847578
0.000336992
-0.00016983
-0.000669569
-0.00115987
-0.001636
-0.00209569
-0.00252024
-0.002929
-0.00334663
-0.00367638
-0.00395382
-0.00424822
-0.00472299
-0.0049436
-0.00506319
-0.00512987
-0.00516039
-0.00516039
-0.00512986
-0.00506317
-0.00494361
-0.004723
-0.00424822
-0.00395383
-0.00367641
-0.00334665
-0.002929
-0.00252022
-0.00209569
-0.00163599
-0.00115986
-0.000669569
-0.00016982
0.000337008
0.000847599
0.00135916
0.00186994
0.00238029
0.00289116
0.00341064
0.00392465
0.00434826
0.00482076
0.00486004
0.00445552
0.0040867
0.00374668
0.00343144
0.00313902
0.00286883
0.00262078
0.00239456
0.00218943
0.00200425
0.00183787
0.00168904
0.00155667
0.00143963
0.00133698
0.00124786
0.00117151
0.00110726
0.00105457
0.00101293
0.000982029
0.000961584
0.000951387
0.000989324
0.00100009
0.00102173
0.00105446
0.00109855
0.00115443
0.00122258
0.0013036
0.0013983
0.00150746
0.00163211
0.00177335
0.00193242
0.00211069
0.00230969
0.00253091
0.00277577
0.00304516
0.00333891
0.0036556
0.0039942
0.00435524
0.00474109
0.00466581
0.00413181
0.00362655
0.00313541
0.00261997
0.00209368
0.00156397
0.00103096
0.000494598
-4.50569e-05
-0.000587094
-0.00112817
-0.00166363
-0.00219509
-0.00271164
-0.00323082
-0.0036653
-0.00408303
-0.0046589
-0.00496735
-0.00516741
-0.00531122
-0.00541876
-0.00549899
-0.00555642
-0.00559359
-0.00561187
-0.00561187
-0.00559358
-0.00555642
-0.00549898
-0.00541877
-0.00531124
-0.00516741
-0.00496737
-0.0046589
-0.00408303
-0.0036653
-0.0032308
-0.00271164
-0.00219508
-0.00166362
-0.00112816
-0.000587084
-4.50304e-05
0.00049462
0.00103096
0.00156397
0.00209368
0.00261997
0.00313541
0.00362657
0.00413183
0.00466581
0.00474111
0.00435523
0.00399419
0.00365559
0.00333892
0.00304516
0.00277578
0.00253093
0.00230972
0.00211073
0.00193246
0.00177339
0.00163216
0.0015075
0.00139833
0.00130365
0.00122262
0.00115447
0.00109862
0.00105453
0.0010218
0.00100016
0.000989377
0.00102483
0.00103618
0.001059
0.00109352
0.00114004
0.00119903
0.00127102
0.0013567
0.00145687
0.00157251
0.00170471
0.00185472
0.00202401
0.00221419
0.00242712
0.00266483
0.00292947
0.00322266
0.00354388
0.0038885
0.00425274
0.00463541
0.00454758
0.00398939
0.00344876
0.00292111
0.00239675
0.0018621
0.00131715
0.000764061
0.00020395
-0.000362504
-0.000935633
-0.00151708
-0.00210162
-0.0026756
-0.0032636
-0.00380741
-0.00447769
-0.00485787
-0.0051131
-0.00529764
-0.00542835
-0.00550056
-0.00547499
-0.00520728
-0.00514321
-0.00513649
-0.00514308
-0.00514865
-0.00514864
-0.00514307
-0.00513647
-0.00514321
-0.00520728
-0.00547503
-0.00550057
-0.00542834
-0.00529763
-0.0051131
-0.00485787
-0.00447768
-0.00380739
-0.00326358
-0.0026756
-0.00210162
-0.00151707
-0.000935638
-0.000362472
0.000203966
0.000764082
0.00131717
0.00186212
0.00239677
0.00292113
0.00344878
0.00398941
0.00454759
0.00463542
0.00425275
0.0038885
0.00354389
0.00322269
0.0029295
0.00266486
0.00242713
0.00221422
0.00202404
0.00185476
0.00170474
0.00157255
0.00145692
0.00135675
0.00127107
0.00119909
0.00114011
0.00109358
0.00105907
0.00103623
0.00102488
0.00105756
0.0010695
0.00109347
0.00112974
0.00117865
0.00124068
0.00131643
0.00140666
0.00151221
0.00163417
0.00177376
0.00193238
0.00211165
0.00231349
0.00254007
0.00279416
0.0030792
0.00339918
0.00375514
0.00413436
0.00452849
0.00444496
0.00388248
0.00332888
0.00278167
0.00223686
0.00168848
0.00113016
0.000559778
-2.24252e-05
-0.000615025
-0.00121591
-0.00182577
-0.00245667
-0.00310322
-0.00369602
-0.00440363
-0.00480855
-0.00507223
-0.00523606
-0.00527676
-0.00505459
-0.0050133
-0.00499759
-0.00494685
-0.00483576
-0.00477322
-0.00474624
-0.00473669
-0.00473412
-0.00473414
-0.00473669
-0.00474624
-0.00477323
-0.00483577
-0.00494685
-0.00499761
-0.00501328
-0.00505458
-0.00527676
-0.00523606
-0.00507221
-0.00480854
-0.00440362
-0.00369601
-0.0031032
-0.00245663
-0.00182576
-0.00121591
-0.000614988
-2.23881e-05
0.00055982
0.0011302
0.00168851
0.00223687
0.00278168
0.00332889
0.00388248
0.00444495
0.00452848
0.00413436
0.00375515
0.0033992
0.00307924
0.00279419
0.00254011
0.00231351
0.00211167
0.00193241
0.00177379
0.00163423
0.00151226
0.00140669
0.00131648
0.00124073
0.00117868
0.00112979
0.00109352
0.00106954
0.00105759
0.00108722
0.00109972
0.00112482
0.0011628
0.00121402
0.001279
0.0013584
0.00145302
0.00156383
0.00169192
0.00183865
0.00200555
0.00219446
0.00240741
0.00264683
0.00291594
0.00321982
0.00356822
0.00397458
0.00439997
0.00433983
0.00379068
0.00324104
0.00268987
0.00213546
0.00157489
0.00100431
0.000419768
-0.000181069
-0.000798694
-0.00143085
-0.00207058
-0.0027102
-0.00340115
-0.00418452
-0.00463258
-0.00490323
-0.00501129
-0.00482909
-0.00480123
-0.0047675
-0.004673
-0.00461463
-0.00457156
-0.00452047
-0.00445622
-0.00440767
-0.00437831
-0.00436302
-0.00435671
-0.00435672
-0.00436303
-0.00437833
-0.00440768
-0.00445621
-0.00452046
-0.00457156
-0.00461461
-0.00467299
-0.0047675
-0.00480122
-0.00482908
-0.00501127
-0.00490322
-0.00463258
-0.00418451
-0.00340115
-0.00271018
-0.00207055
-0.0014308
-0.000798651
-0.000181022
0.000419805
0.00100434
0.00157493
0.00213548
0.00268989
0.00324104
0.0037907
0.00433984
0.00439998
0.0039746
0.00356823
0.00321985
0.00291595
0.00264685
0.00240742
0.00219448
0.00200559
0.00183867
0.00169194
0.00156385
0.00145307
0.00135845
0.00127903
0.00121405
0.00116283
0.00112484
0.00109975
0.00108725
0.00111348
0.00112651
0.00115272
0.00119233
0.00124578
0.00131362
0.00139656
0.0014954
0.00161122
0.00174521
0.00189876
0.00207358
0.00227161
0.002495
0.0027461
0.00302737
0.00334291
0.00370918
0.00420832
0.00420794
0.00369655
0.00316868
0.00262826
0.00207666
0.00151329
0.000936173
0.000342503
-0.000270818
-0.000906627
-0.0015671
-0.00225103
-0.00294272
-0.00356599
-0.00428177
-0.00465624
-0.00480537
-0.00462654
-0.00456625
-0.00447205
-0.00441251
-0.00435901
-0.00429444
-0.00423934
-0.00419187
-0.00414514
-0.00409828
-0.00405987
-0.00403306
-0.00401694
-0.00400952
-0.00400951
-0.00401694
-0.00403307
-0.00405987
-0.00409829
-0.00414511
-0.00419184
-0.00423932
-0.00429442
-0.00435897
-0.0044125
-0.00447205
-0.00456625
-0.00462653
-0.00480537
-0.00465622
-0.00428176
-0.00356597
-0.00294269
-0.002251
-0.00156707
-0.000906616
-0.000270781
0.00034253
0.00093621
0.00151332
0.00207668
0.00262829
0.00316871
0.00369657
0.00420796
0.00420832
0.00370919
0.00334292
0.00302738
0.00274611
0.00249502
0.00227162
0.00207359
0.00189877
0.0017452
0.00161125
0.00149544
0.00139658
0.00131366
0.00124582
0.00119236
0.00115274
0.00112655
0.00111352
0.00113604
0.00114958
0.0011768
0.001218
0.0012736
0.00134417
0.00143046
0.00153338
0.00165396
0.00179351
0.0019535
0.00213579
0.00234242
0.00257582
0.00283821
0.0031299
0.00344326
0.00374835
0.00399681
0.00358219
0.00310068
0.00258579
0.00204868
0.00149263
0.000917554
0.000321851
-0.000296795
-0.000941154
-0.00161516
-0.00232517
-0.00308234
-0.00390793
-0.00435915
-0.00455957
-0.00441228
-0.00436641
-0.00427005
-0.00419338
-0.00411783
-0.00405476
-0.00399802
-0.00394242
-0.00389189
-0.00384655
-0.00380463
-0.0037663
-0.00373447
-0.00371091
-0.00369579
-0.00368848
-0.00368849
-0.00369579
-0.0037109
-0.00373445
-0.0037663
-0.00380463
-0.00384654
-0.00389189
-0.00394241
-0.00399801
-0.00405473
-0.00411781
-0.00419336
-0.00427006
-0.0043664
-0.00441228
-0.00455954
-0.00435913
-0.00390791
-0.00308232
-0.00232515
-0.00161513
-0.000941133
-0.000296763
0.000321878
0.000917585
0.00149267
0.00204872
0.00258582
0.00310073
0.00358222
0.00399683
0.00374836
0.00344327
0.00312991