/*--------------------------------*- C++ -*----------------------------------*\
  =========                 |
  \\      /  F ield         | OpenFOAM: The Open Source CFD Toolbox
   \\    /   O peration     | Website:  https://openfoam.org
    \\  /    A nd           | Version:  7
     \\/     M anipulation  |
\*---------------------------------------------------------------------------*/
FoamFile
{
    version     2.0;
    format      ascii;
    class       volScalarField;
    location    "0.016";
    object      gradTx;
}
// * * * * * * * * * * * * * * * * * * * * * * * * * * * * * * * * * * * * * //

dimensions      [0 -1 0 1 0 0 0];

internalField   nonuniform List<scalar> 
10000
(
2.58239e-05
7.74665e-05
0.000129088
0.000180683
0.000232209
0.000283666
0.000335033
0.000386215
0.000437154
0.000487849
0.000538168
0.000588005
0.000637244
0.000685747
0.000733361
0.000779921
0.000825227
0.000869072
0.00091119
0.000951377
0.000989361
0.00102485
0.00105757
0.00108721
0.00111348
0.00113606
0.0011546
0.00116879
0.00117831
0.00118281
0.00118196
0.00117548
0.00116306
0.00114446
0.0011195
0.00108801
0.00104992
0.00100526
0.000954114
0.000896643
0.000833036
0.000763579
0.000688542
0.000608291
0.000523276
0.000434051
0.000341285
0.000245745
0.000148231
4.95461e-05
-4.95514e-05
-0.000148241
-0.000245761
-0.000341312
-0.000434078
-0.000523308
-0.000608323
-0.000688558
-0.0007636
-0.000833046
-0.000896627
-0.000954103
-0.00100527
-0.00104993
-0.001088
-0.0011195
-0.00114449
-0.00116308
-0.0011755
-0.00118197
-0.0011828
-0.00117831
-0.0011688
-0.00115461
-0.00113606
-0.0011135
-0.00108723
-0.00105759
-0.00102487
-0.000989372
-0.000951382
-0.000911201
-0.000869077
-0.000825232
-0.000779927
-0.000733377
-0.000685758
-0.000637255
-0.00058801
-0.000538168
-0.000487859
-0.00043718
-0.000386199
-0.000335023
-0.000283671
-0.000232225
-0.000180683
-0.000129088
-7.74665e-05
-2.58239e-05
2.60463e-05
7.81229e-05
0.0001302
0.000182244
0.000234236
0.00028617
0.000337998
0.000389656
0.000441108
0.000492306
0.000543144
0.000593537
0.000643311
0.000692381
0.000740577
0.000787719
0.000833607
0.000878045
0.000920783
0.000961557
0.00100013
0.00103621
0.0010695
0.00109971
0.00112651
0.00114959
0.00116864
0.00118327
0.00119319
0.00119805
0.0011975
0.00119126
0.001179
0.00116044
0.00113539
0.00110371
0.0010653
0.00102018
0.000968439
0.000910269
0.000845879
0.000775538
0.000699533
0.000618175
0.000531863
0.000441219
0.000346924
0.000249779
0.000150666
5.03508e-05
-5.03614e-05
-0.000150677
-0.000249806
-0.000346945
-0.000441246
-0.0005319
-0.000618186
-0.000699554
-0.000775565
-0.000845884
-0.000910259
-0.000968439
-0.00102017
-0.0010653
-0.00110371
-0.00113541
-0.00116046
-0.00117901
-0.00119128
-0.00119751
-0.00119805
-0.00119319
-0.00118327
-0.00116864
-0.0011496
-0.00112652
-0.00109973
-0.00106952
-0.00103623
-0.00100016
-0.000961568
-0.000920778
-0.000878056
-0.000833613
-0.000787714
-0.000740587
-0.000692396
-0.000643327
-0.000593532
-0.000543155
-0.000492317
-0.000441114
-0.000389651
-0.000337993
-0.00028617
-0.000234263
-0.000182244
-0.000130189
-7.81282e-05
-2.6041e-05
2.64857e-05
7.94623e-05
0.000132434
0.000185384
0.000238292
0.000291168
0.000343922
0.000396576
0.000449033
0.000501258
0.000553144
0.000604607
0.000655498
0.000705706
0.00075504
0.000803347
0.000850442
0.000896081
0.000940016
0.000982013
0.00102177
0.00105904
0.0010935
0.00112482
0.00115271
0.00117681
0.00119683
0.00121238
0.00122314
0.00122873
0.0012288
0.00122304
0.00121109
0.00119264
0.00116746
0.0011354
0.0010963
0.00105024
0.000997318
0.000937734
0.000871761
0.000799689
0.000721709
0.000638144
0.00054928
0.000455735
0.0003583
0.000257927
0.000155521
5.19549e-05
-5.19761e-05
-0.000155542
-0.000257943
-0.000358316
-0.000455762
-0.000549306
-0.000638165
-0.000721746
-0.000799705
-0.000871777
-0.000937724
-0.000997307
-0.00105024
-0.0010963
-0.00113538
-0.00116748
-0.00119267
-0.0012111
-0.00122306
-0.00122882
-0.00122873
-0.00122314
-0.0012124
-0.00119683
-0.00117683
-0.00115272
-0.00112483
-0.00109351
-0.00105906
-0.00102179
-0.000982024
-0.000940027
-0.000896081
-0.000850458
-0.000803368
-0.00075505
-0.0007057
-0.000655503
-0.000604596
-0.00055315
-0.000501264
-0.000449039
-0.000396576
-0.000343943
-0.000291162
-0.000238302
-0.000185389
-0.000132428
-7.94676e-05
-2.64962e-05
2.7158e-05
8.14687e-05
0.000135795
0.000190111
0.000244406
0.000298669
0.000352879
0.000406999
0.000460971
0.000514731
0.000568211
0.000621304
0.000673868
0.00072578
0.000776867
0.000826958
0.000875853
0.000923319
0.000969085
0.00101291
0.00105449
0.00109356
0.00112976
0.0011628
0.00119234
0.00121802
0.00123951
0.00125643
0.00126848
0.00127521
0.00127627
0.00127125
0.00125982
0.00124157
0.00121623
0.00118359
0.00114348
0.00109597
0.0010412
0.000979461
0.000911074
0.000836392
0.000755585
0.000668706
0.000575967
0.000477949
0.000375638
0.000270225
0.000162847
5.44007e-05
-5.44113e-05
-0.000162863
-0.000270241
-0.000375659
-0.00047797
-0.000576009
-0.000668743
-0.000755612
-0.000836408
-0.00091109
-0.000979451
-0.00104119
-0.00109596
-0.00114348
-0.00118358
-0.00121624
-0.00124161
-0.00125985
-0.00127127
-0.00127628
-0.00127521
-0.00126848
-0.00125645
-0.0012395
-0.00121802
-0.00119235
-0.00116282
-0.00112977
-0.00109357
-0.00105453
-0.00101292
-0.000969101
-0.000923324
-0.000875869
-0.000826974
-0.000776877
-0.000725775
-0.000673862
-0.000621293
-0.000568221
-0.000514731
-0.000460971
-0.000406999
-0.00035289
-0.000298685
-0.000244406
-0.000190111
-0.00013579
-8.14793e-05
-2.71633e-05
2.80474e-05
8.41633e-05
0.00014029
0.000196443
0.000252575
0.000308754
0.000364875
0.000420986
0.00047697
0.000532821
0.000588439
0.000643708
0.000698532
0.000752763
0.000806217
0.000858696
0.00091002
0.000959969
0.00100822
0.00105454
0.00109858
0.00114007
0.00117867
0.00121403
0.00124581
0.00127361
0.00129713
0.00131596
0.00132973
0.00133805
0.00134046
0.00133656
0.0013259
0.00130803
0.00128252
0.00124911
0.00120763
0.00115814
0.0011008
0.00103601
0.000964331
0.000886251
0.000801838
0.000710761
0.000612791
0.000508447
0.000399201
0.000286789
0.000172609
5.76247e-05
-5.76141e-05
-0.000172631
-0.000286821
-0.000399228
-0.000508484
-0.000612807
-0.000710782
-0.000801854
-0.000886272
-0.000964358
-0.00103602
-0.00110078
-0.00115812
-0.00120764
-0.00124912
-0.00128253
-0.00130804
-0.00132595
-0.00133659
-0.00134049
-0.00133806
-0.00132973
-0.00131596
-0.00129711
-0.00127361
-0.00124581
-0.00121404
-0.00117869
-0.0011401
-0.00109861
-0.00105455
-0.00100824
-0.000959985
-0.000910063
-0.000858701
-0.000806206
-0.000752769
-0.000698532
-0.000643697
-0.000588434
-0.00053281
-0.00047698
-0.000420981
-0.000364902
-0.000308744
-0.000252585
-0.000196448
-0.0001403
-8.41739e-05
-2.8058e-05
2.9175e-05
8.75514e-05
0.000145938
0.000204394
0.000262887
0.000321423
0.000379984
0.000438583
0.000497124
0.000555606
0.000613929
0.000671983
0.00072965
0.000786809
0.000843258
0.000898797
0.000953251
0.00100634
0.00105775
0.00110722
0.00115444
0.00119905
0.00124071
0.00127902
0.00131365
0.00134418
0.00137029
0.00139157
0.00140759
0.00141798
0.00142223
0.00141984
0.00141033
0.00139305
0.00136747
0.00133319
0.00128995
0.00123783
0.00117704
0.00110813
0.00103208
0.000949863
0.000861485
0.000765702
0.000661072
0.000548094
0.000429313
0.000307531
0.000184632
6.15422e-05
-6.15422e-05
-0.000184637
-0.000307552
-0.00042934
-0.000548131
-0.000661109
-0.000765718
-0.000861485
-0.000949889
-0.00103209
-0.00110813
-0.00117703
-0.00123783
-0.00128998
-0.0013332
-0.00136748
-0.00139306
-0.00141035
-0.00141989
-0.00142225
-0.00141799
-0.00140759
-0.00139156
-0.00137029
-0.00134419
-0.00131365
-0.00127903
-0.00124071
-0.00119909
-0.00115446
-0.00110726
-0.00105777
-0.00100635
-0.000953267
-0.000898813
-0.000843253
-0.000786809
-0.000729655
-0.000671962
-0.000613908
-0.000555601
-0.00049714
-0.000438583
-0.00038
-0.000321428
-0.000262898
-0.000204416
-0.000145954
-8.75514e-05
-2.91856e-05
3.05567e-05
9.1649e-05
0.000152778
0.000214019
0.000275333
0.000336759
0.000398275
0.000459881
0.000521523
0.000583203
0.000644809
0.000706256
0.000767428
0.000828144
0.000888257
0.000947565
0.00100581
0.00106277
0.00111809
0.00117149
0.00122259
0.00127104
0.00131645
0.00135842
0.00139657
0.00143047
0.00145979
0.00148406
0.0015029
0.00151589
0.00152253
0.00152221
0.00151431
0.00149804
0.00147258
0.00143736
0.00139201
0.00133655
0.00127124
0.00119666
0.00111466
0.00102762
0.00093576
0.000835868
0.000723244
0.000598159
0.000466053
0.000331947
0.000198391
6.59521e-05
-6.59733e-05
-0.000198386
-0.000331947
-0.000466085
-0.000598196
-0.000723281
-0.000835868
-0.000935786
-0.00102763
-0.00111465
-0.00119667
-0.00127125
-0.00133657
-0.00139204
-0.00143738
-0.00147259
-0.00149803
-0.00151434
-0.00152226
-0.00152255
-0.0015159
-0.0015029
-0.00148406
-0.00145977
-0.00143048
-0.00139657
-0.00135844
-0.00131647
-0.00127106
-0.00122262
-0.0011715
-0.00111811
-0.00106279
-0.00100585
-0.00094756
-0.000888257
-0.000828144
-0.000767412
-0.000706256
-0.000644799
-0.000583193
-0.000521545
-0.000459875
-0.000398296
-0.000336764
-0.000275333
-0.00021404
-0.00015281
-9.16543e-05
-3.05514e-05
3.21555e-05
9.64665e-05
0.000160857
0.000225343
0.000289987
0.000354806
0.000419805
0.000484985
0.000550312
0.000615756
0.000681263
0.000746712
0.000812024
0.000877029
0.000941519
0.0010053
0.00106813
0.00112974
0.00118975
0.00124785
0.00130364
0.00135672
0.00140666
0.00145304
0.00149543
0.00153338
0.00156652
0.00159441
0.00161666
0.00163285
0.00164251
0.00164495
0.00163936
0.0016247
0.00159982
0.00156373
0.00151582
0.00145636
0.0013854
0.00130261
0.0012116
0.0011188
0.00102594
0.000925733
0.000803967
0.000660252
0.000508728
0.000358544
0.000212679
7.04361e-05
-7.0452e-05
-0.000212679
-0.000358576
-0.000508739
-0.000660283
-0.000803998
-0.000925754
-0.00102595
-0.00111882
-0.00121159
-0.00130261
-0.0013854
-0.00145637
-0.00151585
-0.00156374
-0.00159985
-0.00162473
-0.0016394
-0.00164499
-0.00164252
-0.00163289
-0.00161667
-0.00159439
-0.00156651
-0.00153338
-0.00149542
-0.00145305
-0.00140668
-0.00135675
-0.00130366
-0.00124786
-0.00118976
-0.00112975
-0.00106816
-0.00100531
-0.000941535
-0.000877029
-0.000812024
-0.000746718
-0.000681253
-0.000615745
-0.000550317
-0.000484979
-0.000419821
-0.000354812
-0.000290008
-0.000225369
-0.000160867
-9.64876e-05
-3.21502e-05
3.39978e-05
0.000102025
0.000170137
0.00023844
0.000306922
0.000375649
0.000444671
0.00051398
0.000583569
0.000653422
0.000723461
0.000793612
0.000863757
0.000933748
0.00100338
0.00107243
0.00114065
0.00120772
0.00127328
0.00133696
0.00139834
0.00145691
0.00151223
0.00156383
0.00161124
0.00165397
0.00169161
0.00172375
0.00175002
0.00177008
0.00178345
0.00178949
0.00178721
0.00177522
0.00175172
0.00171499
0.00166391
0.00159984
0.00152299
0.00142768
0.00132048
0.00121944
0.00113203
0.00104491
0.000913372
0.000735706
0.000554304
0.000383881
0.000225115
7.41524e-05
-7.41577e-05
-0.000225141
-0.000383891
-0.000554325
-0.000735722
-0.000913398
-0.00104495
-0.00113205
-0.00121945
-0.00132047
-0.00142769
-0.00152299
-0.00159986
-0.00166394
-0.00171501
-0.00175173
-0.00177524
-0.00178724
-0.00178953
-0.00178348
-0.00177009
-0.00175003
-0.00172375
-0.0016916
-0.00165398
-0.00161125
-0.00156383
-0.00151224
-0.00145691
-0.00139834
-0.00133698
-0.0012733
-0.00120774
-0.00114067
-0.00107243
-0.00100338
-0.000933743
-0.000863767
-0.000793612
-0.000723456
-0.000653417
-0.000583579
-0.000514001
-0.000444698
-0.00037567
-0.000306933
-0.000238445
-0.000170164
-0.00010203
-3.40031e-05
3.60995e-05
0.00010833
0.000180709
0.0002533
0.000326166
0.000399376
0.000472973
0.000547009
0.000621479
0.000696367
0.000771605
0.000847155
0.000922885
0.000998636
0.00107422
0.0011494
0.00122387
0.00129735
0.0013694
0.0014396
0.0015075
0.00157255
0.00163421
0.00169193
0.0017452
0.00179351
0.00183638
0.0018734
0.00190429
0.0019288
0.00194667
0.00195736
0.00195977
0.00195211
0.00193149
0.00189496
0.00183894
0.00176957
0.00169173
0.00157666
0.00143423
0.00131668
0.00124731
0.00121727
0.00107656
0.000821056
0.000593564
0.000400747
0.000231679
7.58306e-05
-7.58359e-05
-0.000231701
-0.000400774
-0.00059358
-0.000821066
-0.00107657
-0.0012173
-0.00124734
-0.00131669
-0.00143423
-0.00157667
-0.00169173
-0.00176957
-0.00183897
-0.00189499
-0.00193151
-0.00195214
-0.00195981
-0.00195738
-0.00194669
-0.00192883
-0.0019043
-0.0018734
-0.00183638
-0.00179353
-0.00174521
-0.00169194
-0.0016342
-0.00157255
-0.00150751
-0.00143962
-0.0013694
-0.00129735
-0.00122388
-0.00114939
-0.0010742
-0.000998636
-0.000922901
-0.000847165
-0.000771615
-0.000696367
-0.0006215
-0.000547035
-0.000473015
-0.000399397
-0.000326166
-0.000253305
-0.000180725
-0.000108346
-3.61048e-05
3.84659e-05
0.000115445
0.000192568
0.000270002
0.000347792
0.000426047
0.000504826
0.000584193
0.000664169
0.000744764
0.000825942
0.000907617
0.000989716
0.00107206
0.00115445
0.00123666
0.00131838
0.00139925
0.00147882
0.00155663
0.00163214
0.00170475
0.00177379
0.00183867
0.00189877
0.00195352
0.00200237
0.0020449
0.00208087
0.00211032
0.00213339
0.00214992
0.00215881
0.00215831
0.00214333
0.00211035
0.00204277
0.00196254
0.00191188
0.00176623
0.00153509
0.00137674
0.00133376
0.00151052
0.00136355
0.000885224
0.000603162
0.000397211
0.000227
7.39301e-05
-7.3946e-05
-0.000227015
-0.000397243
-0.000603167
-0.000885229
-0.00136356
-0.00151055
-0.00133377
-0.00137676
-0.0015351
-0.00176625
-0.00191186
-0.00196255
-0.00204279
-0.00211038
-0.00214336
-0.00215835
-0.00215883
-0.00214994
-0.00213341
-0.00211034
-0.00208087
-0.00204491
-0.0020024
-0.00195354
-0.00189878
-0.00183867
-0.00177379
-0.00170474
-0.00163215
-0.00155665
-0.00147882
-0.00139923
-0.00131838
-0.00123666
-0.00115445
-0.00107206
-0.000989721
-0.000907638
-0.000825963
-0.000744785
-0.000664206
-0.000584209
-0.000504863
-0.000426068
-0.000347802
-0.000270002
-0.000192584
-0.000115429
-3.84553e-05
4.10917e-05
0.000123333
0.000205765
0.000288584
0.000371885
0.000455773
0.000540322
0.000625661
0.00071182
0.000798831
0.000886679
0.000975284
0.00106459
0.00115441
0.00124455
0.00133479
0.00142477
0.00151413
0.0016024
0.00168904
0.00177339
0.00185474
0.00193242
0.00200559
0.00207359
0.00213578
0.0021915
0.00224009
0.00228137
0.00231594
0.00234453
0.00236817
0.00238529
0.00239708
0.00239114
0.002378
0.0022764
0.00214236
0.002243
0.00205613
0.00157601
0.001333
0.00121164
0.00116015
0.00101328
0.000760588
0.000541693
0.000361265
0.000207078
6.74715e-05
-6.74768e-05
-0.000207089
-0.000361291
-0.000541699
-0.000760593
-0.00101331
-0.00116016
-0.00121165
-0.001333
-0.00157604
-0.00205615
-0.00224299
-0.00214239
-0.00227641
-0.00237803
-0.00239117
-0.00239711
-0.00238532
-0.00236818
-0.00234456
-0.00231595
-0.00228137
-0.0022401
-0.00219152
-0.0021358
-0.00207361
-0.00200559
-0.00193239
-0.00185477
-0.00177339
-0.00168903
-0.0016024
-0.00151415
-0.00142479
-0.0013348
-0.00124455
-0.0011544
-0.0010646
-0.000975316
-0.000886695
-0.000798863
-0.000711868
-0.000625693
-0.000540343
-0.000455773
-0.000371895
-0.000288595
-0.000205776
-0.000123317
-4.10811e-05
4.39875e-05
0.000132037
0.00022034
0.000309109
0.000398492
0.000488595
0.000579577
0.000671559
0.000764622
0.00085878
0.000954071
0.00105046
0.00114785
0.00124609
0.00134499
0.00144433
0.00154373
0.00164282
0.00174106
0.00183785
0.00193245
0.00202404
0.00211169
0.00219448
0.00227163
0.00234244
0.00240609
0.00246138
0.00250767
0.00254692
0.00258032
0.00261274
0.00263711
0.0026737
0.00266618
0.00275406
0.00256152
0.00210547
0.00190037
0.00167652
0.00139307
0.00117873
0.00102979
0.00091487
0.000777364
0.000608524
0.000446265
0.000302126
0.000174314
5.69312e-05
-5.69471e-05
-0.00017433
-0.000302115
-0.000446275
-0.000608535
-0.00077737
-0.00091488
-0.00102982
-0.00117875
-0.00139308
-0.00167654
-0.00190038
-0.00210549
-0.00256155
-0.00275409
-0.00266622
-0.00267373
-0.00263713
-0.00261276
-0.00258032
-0.00254692
-0.00250769
-0.00246139
-0.0024061
-0.00234244
-0.00227164
-0.00219448
-0.00211168
-0.00202404
-0.00193246
-0.00183784
-0.00174105
-0.00164283
-0.00154377
-0.00144434
-0.00134501
-0.0012461
-0.00114785
-0.00105047
-0.000954108
-0.000858807
-0.000764638
-0.000671597
-0.000579598
-0.000488595
-0.000398487
-0.000309125
-0.00022035
-0.000132026
-4.39769e-05
4.71639e-05
0.000141587
0.000236327
0.000331619
0.000427667
0.000524631
0.000622702
0.000722032
0.000822691
0.000924801
0.00102839
0.00113343
0.00123984
0.00134755
0.00145632
0.0015659
0.00167596
0.00178611
0.00189575
0.00200423
0.00211073
0.00221422
0.00231353
0.00240743
0.00249503
0.00257583
0.00264921
0.00271232
0.00276201
0.00280511
0.00283865
0.00288729
0.00289879
0.00301686
0.00286815
0.00245358
0.00215164
0.00183528
0.00159237
0.00137058
0.00115268
0.000968905
0.000822601
0.000699824
0.000579291
0.000454984
0.000336484
0.000229149
0.000132603
4.33522e-05
-4.3384e-05
-0.000132608
-0.000229149
-0.000336479
-0.000454984
-0.000579296
-0.000699829
-0.000822628
-0.000968942
-0.0011527
-0.00137059
-0.00159239
-0.00183531
-0.00215167
-0.00245363
-0.00286819
-0.00301689
-0.0028988
-0.0028873
-0.00283866
-0.00280511
-0.00276203
-0.00271233
-0.00264922
-0.00257585
-0.00249503
-0.00240743
-0.00231352
-0.00221421
-0.00211074
-0.00200424
-0.00189574
-0.0017861
-0.00167599
-0.00156592
-0.00145634
-0.00134757
-0.00123986
-0.00113344
-0.00102841
-0.000924828
-0.000822728
-0.000722043
-0.000622712
-0.000524642
-0.000427683
-0.000331635
-0.000236327
-0.000141555
-4.71533e-05
5.06155e-05
0.000151989
0.000253734
0.000356161
0.000459505
0.000563976
0.000669802
0.000777158
0.000886224
0.000997101
0.00110985
0.00122449
0.001341
0.00145923
0.00157902
0.0017001
0.00182219
0.00194484
0.00206748
0.00218943
0.00230973
0.00242714
0.00254011
0.00264687
0.00274612
0.00283822
0.00292482
0.0029994
0.00304612
0.00309632
0.00310571
0.00322319
0.00307815
0.0026721
0.00237999
0.00206107
0.00177422
0.001507
0.00127662
0.00107221
0.000887812
0.000729819
0.000598778
0.000488362
0.000389852
0.000299426
0.000218376
0.000147299
8.46821e-05
2.7608e-05
-2.7608e-05
-8.47033e-05
-0.000147315
-0.000218376
-0.000299437
-0.000389852
-0.000488373
-0.000598789
-0.00072983
-0.000887849
-0.00107224
-0.00127663
-0.00150703
-0.00177424
-0.00206111
-0.00238004
-0.00267212
-0.00307815
-0.0032232
-0.00310571
-0.00309632
-0.00304611
-0.0029994
-0.00292485
-0.00283824
-0.00274613
-0.00264686
-0.0025401
-0.00242715
-0.00230972
-0.00218942
-0.00206746
-0.00194484
-0.00182221
-0.00170014
-0.00157904
-0.00145923
-0.001341
-0.00122452
-0.00110987
-0.000997138
-0.000886261
-0.00077719
-0.000669828
-0.000563981
-0.000459499
-0.000356177
-0.000253723
-0.000151968
-5.06155e-05
5.43742e-05
0.000163276
0.000272623
0.000382774
0.000494037
0.000606682
0.000720963
0.000837128
0.000955384
0.00107587
0.00119872
0.00132398
0.00145161
0.00158157
0.00171364
0.0018476
0.00198313
0.00211984
0.00225723
0.00239459
0.00253093
0.00266487
0.0027942
0.00291597
0.00302739
0.00312991
0.00323697
0.00333947
0.00335221
0.00345427
0.00329073
0.00286864
0.00256425
0.0022358
0.00193864
0.00165374
0.00139201
0.00115453
0.000945591
0.000762811
0.000604014
0.000469854
0.000359322
0.000269113
0.000195596
0.000137013
9.21095e-05
5.82018e-05
3.19808e-05
1.01856e-05
-1.01909e-05
-3.19914e-05
-5.82123e-05
-9.21201e-05
-0.000137034
-0.000195585
-0.000269118
-0.000359348
-0.000469876
-0.000604046
-0.000762838
-0.000945612
-0.00115453
-0.00139203
-0.00165377
-0.00193868
-0.00223581
-0.00256428
-0.00286865
-0.00329072
-0.00345428
-0.00335223
-0.00333949
-0.00323697
-0.00312992
-0.0030274
-0.00291595
-0.00279418
-0.00266485
-0.00253093
-0.00239458
-0.00225724
-0.00211986
-0.00198316
-0.00184762
-0.00171363
-0.00158157
-0.00145163
-0.00132399
-0.00119876
-0.00107592
-0.000955427
-0.00083716
-0.000720984
-0.000606693
-0.000494043
-0.000382785
-0.000272612
-0.00016325
-5.43636e-05
5.84082e-05
0.000175431
0.000292994
0.000411504
0.000531338
0.000652829
0.00077629
0.000902037
0.00103031
0.00116132
0.00129524
0.00143216
0.00157212
0.00171502
0.00186071
0.00200899
0.00215952
0.00231197
0.00246591
0.00262078
0.0027758
0.00292952
0.00307926
0.00321985
0.00334293
0.00344327
0.00358077
0.00379731
0.00359709
0.00312681
0.00278182
0.00242043
0.00209596
0.00178687
0.00150129
0.00123712
0.000997222
0.000783172
0.000596295
0.00043583
0.00030066
0.000190191
0.000102607
3.53742e-05
-1.1959e-05
-3.78783e-05
-4.44163e-05
-3.81006e-05
-2.48816e-05
-8.57091e-06
8.56562e-06
2.48763e-05
3.80847e-05
4.44057e-05
3.7873e-05
1.19643e-05
-3.53848e-05
-0.000102623
-0.000190212
-0.000300691
-0.000435867
-0.000596332
-0.000783188
-0.000997228
-0.00123711
-0.00150132
-0.00178691
-0.00209599
-0.00242045
-0.00278179
-0.00312681
-0.00359709
-0.00379733
-0.00358079
-0.00344329
-0.00334293
-0.00321984
-0.00307923
-0.00292949
-0.00277577
-0.00262079
-0.00246594
-0.002312
-0.00215955
-0.00200899
-0.00186073
-0.00171501
-0.00157214
-0.0014322
-0.00129527
-0.00116136
-0.00103034
-0.000902058
-0.000776316
-0.000652845
-0.000531349
-0.00041151
-0.000292968
-0.000175405
-5.84082e-05
6.27387e-05
0.000188481
0.000314874
0.000442374
0.000571445
0.000702471
0.000835847
0.000971965
0.00111113
0.00125359
0.00139962
0.00154936
0.00170283
0.00186002
0.0020208
0.00218495
0.00235213
0.002522
0.00269432
0.00286882
0.00304518
0.00322271
0.00339922
0.00356824
0.0037092
0.00374837
0.00387557
0.00372373
0.00316214
0.00270027
0.00231256
0.00195561
0.00162982
0.0013295
0.00105509
0.000806539
0.00058494
0.000391202
0.000225613
8.72285e-05
-2.48763e-05
-0.00011076
-0.000173631
-0.000217957
-0.000241055
-0.000232463
-0.000194145
-0.000141634
-8.50474e-05
-2.82591e-05
2.82591e-05
8.50368e-05
0.000141619
0.000194135
0.000232458
0.00024105
0.000217931
0.00017361
0.000110744
2.48392e-05
-8.72603e-05
-0.000225639
-0.000391207
-0.00058495
-0.000806555
-0.00105512
-0.00132951
-0.00162984
-0.00195562
-0.00231256
-0.00270026
-0.00316216
-0.00372374
-0.00387558
-0.00374839
-0.0037092
-0.00356823
-0.0033992
-0.00322269
-0.00304517
-0.00286882
-0.00269435
-0.00252201
-0.00235212
-0.00218494
-0.00202083
-0.00186004
-0.00170284
-0.00154937
-0.00139966
-0.00125362
-0.00111114
-0.000971986
-0.000835884
-0.000702487
-0.000571451
-0.000442368
-0.000314842
-0.00018846
-6.2744e-05
6.73974e-05
0.000202446
0.000338257
0.000475403
0.000614342
0.000755628
0.000899713
0.00104699
0.00119793
0.00135285
0.00151205
0.00167576
0.00184408
0.00201702
0.00219446
0.00237616
0.0025617
0.00275076
0.00294315
0.003139
0.00333892
0.0035439
0.00375517
0.00397462
0.00420834
0.00399683
0.00350189
0.00311109
0.002654
0.00222214
0.00183193
0.00147602
0.00115189
0.000857303
0.000591901
0.000355796
0.000149702
-2.56916e-05
-0.00017036
-0.000286922
-0.000376866
-0.000435634
-0.000469849
-0.000494328
-0.000503873
-0.000458716
-0.000359687
-0.000250409
-0.000146145
-4.79368e-05
4.79156e-05
0.000146124
0.000250388
0.000359687
0.0004587
0.000503868
0.000494313
0.000469833
0.000435629
0.000376829
0.000286895
0.000170349
2.56863e-05
-0.000149702
-0.000355801
-0.000591933
-0.000857335
-0.00115191
-0.00147602
-0.00183194
-0.00222214
-0.00265401
-0.0031111
-0.0035019
-0.00399684
-0.00420834
-0.00397459
-0.00375514
-0.00354389
-0.00333891
-0.003139
-0.00294315
-0.00275076
-0.0025617
-0.00237616
-0.00219449
-0.00201703
-0.00184408
-0.00167578
-0.00151209
-0.00135286
-0.00119795
-0.00104701
-0.000899713
-0.000755665
-0.000614364
-0.000475381
-0.000338252
-0.00020242
-6.73815e-05
7.23313e-05
0.000217312
0.000363187
0.000510576
0.000660093
0.000812342
0.000967862
0.00112716
0.00129077
0.00145915
0.00163265
0.00181159
0.00199617
0.00218642
0.00238228
0.00258338
0.00278924
0.00299926
0.00321316
0.00343142
0.00365559
0.00388852
0.00413439
0.00439998
0.00420796
0.00358222
0.00305341
0.00259081
0.00214286
0.00172098
0.00133238
0.000976989
0.000654079
0.000363155
0.000104376
-0.000122015
-0.000314974
-0.000473528
-0.000595888
-0.000690104
-0.000763145
-0.000788731
-0.000779726
-0.000789811
-0.000825624
-0.000742678
-0.000538496
-0.000356251
-0.000202425
-6.56556e-05
6.56503e-05
0.000202414
0.000356236
0.00053848
0.000742652
0.000825598
0.0007898
0.000779704
0.00078872
0.000763129
0.000690078
0.000595867
0.000473528
0.000314985
0.000121989
-0.000104397
-0.00036316
-0.000654095
-0.000977005
-0.00133239
-0.00172098
-0.00214288
-0.00259082
-0.00305341
-0.00358223
-0.00420796
-0.00439997
-0.00413436
-0.00388849
-0.00365559
-0.00343142
-0.00321317
-0.00299926
-0.00278924
-0.00258339
-0.00238229
-0.00218645
-0.00199618
-0.0018116
-0.00163267
-0.00145917
-0.0012908
-0.00112717
-0.000967867
-0.000812352
-0.000660109
-0.000510581
-0.000363165
-0.00021729
-7.23207e-05
7.75723e-05
0.000233082
0.000389619
0.000547919
0.000708691
0.000872587
0.0010403
0.00121247
0.00138968
0.00157252
0.00176148
0.00195697
0.00215929
0.0023686
0.0025848
0.00280752
0.00303595
0.003269
0.00350576
0.00374666
0.0039942
0.00425275
0.0045285
0.00433985
0.00369656
0.00310073
0.00256427
0.0020776
0.00162366
0.0012009
0.000810785
0.000453676
0.000129728
-0.000160095
-0.00041466
-0.000634253
-0.000816709
-0.000961515
-0.00105459
-0.00112022
-0.00120326
-0.00118303
-0.00107704
-0.00106617
-0.00127304
-0.00115409
-0.000699893
-0.000436683
-0.000243342
-7.84458e-05
7.84405e-05
0.000243331
0.000436651
0.000699866
0.00115408
0.00127303
0.00106613
0.00107702
0.00118304
0.00120326
0.0011202
0.00105458
0.000961499
0.000816725
0.000634242
0.000414649
0.000160084
-0.000129744
-0.000453703
-0.000810806
-0.00120092
-0.00162366
-0.0020776
-0.00256427
-0.00310073
-0.00369657
-0.00433983
-0.00452849
-0.00425272
-0.00399418
-0.00374666
-0.00350577
-0.00326899
-0.00303596
-0.00280751
-0.0025848
-0.0023686
-0.0021593
-0.00195698
-0.0017615
-0.00157255
-0.00138971
-0.00121249
-0.00104032
-0.000872597
-0.000708686
-0.000547919
-0.000389609
-0.000233056
-7.7567e-05
8.30992e-05
0.000249726
0.00041755
0.000587396
0.000760069
0.000936347
0.00111704
0.00130288
0.00149464
0.00169296
0.00189854
0.0021119
0.00233351
0.00256371
0.00280249
0.00304946
0.00330348
0.0035624
0.00382361
0.0040867
0.00435523
0.00463541
0.00444497
0.00379069
0.0031687
0.00258583
0.00204683
0.00154909
0.00108687
0.00065824
0.000263004
-9.90129e-05
-0.000427625
-0.000719973
-0.000972156
-0.00118892
-0.00136299
-0.00150926
-0.00154956
-0.0015423
-0.00175674
-0.00167306
-0.00128823
-0.00113367
-0.00107699
-0.000930439
-0.000676155
-0.000450865
-0.000257869
-8.39251e-05
8.39357e-05
0.000257858
0.000450844
0.000676123
0.000930407
0.00107696
0.00113366
0.00128822
0.00167305
0.00175674
0.0015423
0.00154954
0.00150925
0.00136299
0.00118891
0.000972129
0.000719962
0.00042763
9.89864e-05
-0.000263041
-0.00065825
-0.00108689
-0.00154909
-0.00204681
-0.00258582
-0.00316871
-0.00379069
-0.00444494
-0.00463541
-0.00435523
-0.00408669
-0.0038236
-0.00356241
-0.00330348
-0.00304945
-0.00280247
-0.0025637
-0.00233352
-0.0021119
-0.00189856
-0.00169299
-0.00149464
-0.0013029
-0.00111706
-0.000936347
-0.000760059
-0.000587401
-0.000417545
-0.000249705
-8.30939e-05
8.8912e-05
0.000267255
0.000446963
0.000628964
0.000814205
0.00100356
0.00119797
0.00139832
0.0016055
0.00182036
0.0020437
0.00227626
0.00251875
0.0027717
0.00303545
0.00330988
0.00359379
0.0038834
0.00417158
0.00445553
0.00474112
0.00454758
0.00388248
0.00324104
0.00262827
0.00204871
0.00150527
0.000997995
0.000525626
8.76997e-05
-0.000315769
-0.000685917
-0.00102486
-0.00132608
-0.00157318
-0.00179623
-0.00194851
-0.0021756
-0.00210505
-0.00175565
-0.00164304
-0.00149826
-0.00127996
-0.00111282
-0.000979758
-0.00082231
-0.000629102
-0.00043655
-0.000255502
-8.40098e-05
8.40257e-05
0.000255502
0.000436508
0.000629065
0.000822263
0.000979731
0.00111283
0.00127995
0.00149827
0.00164302
0.00175563
0.00210505
0.00217561
0.00194851
0.00179622
0.00157318
0.00132606
0.00102484
0.000685901
0.000315747
-8.77103e-05
-0.000525632
-0.000998001
-0.00150526
-0.00204872
-0.00262828
-0.00324103
-0.00388248
-0.00454757
-0.00474111
-0.00445552
-0.00417157
-0.00388339
-0.00359378
-0.00330989
-0.00303544
-0.00277169
-0.00251876
-0.00227626
-0.00204371
-0.00182036
-0.00160552
-0.00139833
-0.00119799
-0.00100356
-0.000814195
-0.000628954
-0.000446953
-0.000267249
-8.89279e-05
9.50371e-05
0.000285641
0.000477795
0.000672571
0.000871015
0.00107413
0.00128301
0.00149867
0.00172215
0.00195452
0.00219675
0.00244978
0.00271463
0.00299213
0.00328316
0.00358859
0.00390851
0.00423833
0.00455878
0.00486006
0.00466582
0.00398941
0.00332889
0.00268988
0.00207668
0.00149264
0.000940138
0.000420377
-6.57139e-05
-0.000516563
-0.000930497
-0.00130976
-0.00166837
-0.00199741
-0.0022115
-0.00248933
-0.00247554
-0.00217786
-0.00197705
-0.00174683
-0.00157529
-0.0014096
-0.00123124
-0.00106722
-0.00091514
-0.000756813
-0.000586629
-0.000414337
-0.000245767
-8.13681e-05
8.13628e-05
0.000245756
0.000414316
0.000586597
0.000756776
0.000915124
0.00106723
0.00123123
0.00140959
0.00157526
0.00174685
0.00197705
0.00217785
0.00247553
0.00248932
0.00221151
0.00199739
0.00166836
0.00130976
0.000930476
0.000516558
6.57033e-05
-0.000420388
-0.000940154
-0.00149266
-0.00207669
-0.00268988
-0.00332888
-0.00398941
-0.00466582
-0.00486003
-0.00455876
-0.00423831
-0.00390849
-0.00358858
-0.00328315
-0.00299212
-0.00271463
-0.00244979
-0.00219674
-0.00195452
-0.00172218
-0.00149868
-0.00128302
-0.00107414
-0.000870999
-0.000672565
-0.00047779
-0.000285635
-9.50371e-05
0.000101422
0.000304858
0.00051003
0.000718167
0.000930407
0.00114795
0.001372
0.00160375
0.00184439
0.00209519
0.00235734
0.00263208
0.00292059
0.00322408
0.00354399
0.00388287
0.00424607
0.00463816
0.00500333
0.00482078
0.00413185
0.00344878
0.00278167
0.00213546
0.00151329
0.000917564
0.000350137
-0.000187374
-0.000692841
-0.00116207
-0.00158766
-0.00196528
-0.00235542
-0.0028004
-0.00280462
-0.00251494
-0.00232722
-0.00210146
-0.00189499
-0.00169406
-0.00151482
-0.00134538
-0.00117852
-0.00101866
-0.000864418
-0.000709501
-0.000551191
-0.000391901
-0.000233908
-7.77047e-05
7.76994e-05
0.000233892
0.000391869
0.00055118
0.000709491
0.000864387
0.00101866
0.00117852
0.00134538
0.0015148
0.00169405
0.001895
0.00210146
0.0023272
0.00251493
0.00280461
0.0028004
0.00235543
0.00196528
0.00158765
0.00116207
0.000692825
0.000187364
-0.000350137
-0.000917575
-0.00151332
-0.00213548