/*--------------------------------*- C++ -*----------------------------------*\
  =========                 |
  \\      /  F ield         | OpenFOAM: The Open Source CFD Toolbox
   \\    /   O peration     | Website:  https://openfoam.org
    \\  /    A nd           | Version:  7
     \\/     M anipulation  |
\*---------------------------------------------------------------------------*/
FoamFile
{
    version     2.0;
    format      ascii;
    class       volScalarField;
    location    "0.048";
    object      gradTx;
}
// * * * * * * * * * * * * * * * * * * * * * * * * * * * * * * * * * * * * * //

dimensions      [0 -1 0 1 0 0 0];

internalField   nonuniform List<scalar> 
10000
(
2.07523e-06
6.22569e-06
1.03867e-05
1.44631e-05
1.85077e-05
2.24781e-05
2.63745e-05
3.0165e-05
3.37966e-05
3.73118e-05
4.06999e-05
4.39292e-05
4.69468e-05
4.98161e-05
5.24737e-05
5.49195e-05
5.71641e-05
5.91758e-05
6.09228e-05
6.24687e-05
6.3771e-05
6.4798e-05
6.55815e-05
6.61109e-05
6.63756e-05
6.63862e-05
6.61003e-05
6.56239e-05
6.4851e-05
6.38028e-05
6.24793e-05
6.0944e-05
5.91758e-05
5.71535e-05
5.49195e-05
5.24737e-05
4.98161e-05
4.6968e-05
4.39187e-05
4.06999e-05
3.7333e-05
3.3839e-05
3.0165e-05
2.63851e-05
2.25099e-05
1.855e-05
1.44949e-05
1.04079e-05
6.28922e-06
2.11758e-06
-2.04347e-06
-6.20452e-06
-1.0355e-05
-1.44313e-05
-1.84865e-05
-2.24464e-05
-2.63215e-05
-3.01014e-05
-3.37649e-05
-3.72694e-05
-4.06576e-05
-4.38657e-05
-4.69044e-05
-4.97526e-05
-5.24102e-05
-5.4856e-05
-5.71006e-05
-5.91017e-05
-6.08911e-05
-6.24157e-05
-6.37075e-05
-6.47768e-05
-6.55286e-05
-6.6058e-05
-6.63333e-05
-6.63333e-05
-6.60792e-05
-6.55709e-05
-6.47768e-05
-6.37286e-05
-6.24581e-05
-6.09017e-05
-5.91547e-05
-5.7143e-05
-5.48771e-05
-5.24102e-05
-4.97738e-05
-4.6968e-05
-4.38975e-05
-4.06682e-05
-3.73012e-05
-3.3786e-05
-3.01332e-05
-2.63639e-05
-2.24993e-05
-1.85394e-05
-1.44949e-05
-1.03973e-05
-6.23628e-06
-2.08582e-06
2.08582e-06
6.22569e-06
1.03762e-05
1.44737e-05
1.85077e-05
2.24887e-05
2.63427e-05
3.01544e-05
3.37754e-05
3.73012e-05
4.07105e-05
4.39292e-05
4.69574e-05
4.97949e-05
5.24737e-05
5.49089e-05
5.7143e-05
5.91653e-05
6.09334e-05
6.24475e-05
6.37604e-05
6.47874e-05
6.55604e-05
6.61109e-05
6.63968e-05
6.63862e-05
6.61109e-05
6.56027e-05
6.48404e-05
6.37922e-05
6.24687e-05
6.09228e-05
5.91653e-05
5.71641e-05
5.49195e-05
5.24737e-05
4.97949e-05
4.6968e-05
4.39187e-05
4.06999e-05
3.73224e-05
3.38072e-05
3.01967e-05
2.63957e-05
2.24993e-05
1.85394e-05
1.44949e-05
1.04185e-05
6.27863e-06
2.09641e-06
-2.04347e-06
-6.19393e-06
-1.03444e-05
-1.44419e-05
-1.84971e-05
-2.24464e-05
-2.6311e-05
-3.00908e-05
-3.37649e-05
-3.72694e-05
-4.06364e-05
-4.38551e-05
-4.69044e-05
-4.97526e-05
-5.23996e-05
-5.4856e-05
-5.71006e-05
-5.91017e-05
-6.08699e-05
-6.24052e-05
-6.37075e-05
-6.47557e-05
-6.5518e-05
-6.6058e-05
-6.63333e-05
-6.63333e-05
-6.60792e-05
-6.55392e-05
-6.47557e-05
-6.37181e-05
-6.24475e-05
-6.09228e-05
-5.91229e-05
-5.7143e-05
-5.48983e-05
-5.24208e-05
-4.97844e-05
-4.69256e-05
-4.38763e-05
-4.06682e-05
-3.72906e-05
-3.37966e-05
-3.01226e-05
-2.63745e-05
-2.25099e-05
-1.85183e-05
-1.44949e-05
-1.03973e-05
-6.24687e-06
-2.08582e-06
2.08582e-06
6.23628e-06
1.03656e-05
1.44631e-05
1.85183e-05
2.24781e-05
2.63639e-05
3.01438e-05
3.3786e-05
3.73118e-05
4.06788e-05
4.38975e-05
4.69256e-05
4.98055e-05
5.24419e-05
5.49089e-05
5.7143e-05
5.91547e-05
6.09123e-05
6.24369e-05
6.37181e-05
6.47874e-05
6.55604e-05
6.60792e-05
6.63862e-05
6.63544e-05
6.61003e-05
6.55815e-05
6.48192e-05
6.37604e-05
6.24687e-05
6.09228e-05
5.91441e-05
5.7143e-05
5.49195e-05
5.24737e-05
4.97844e-05
4.69362e-05
4.39081e-05
4.07105e-05
3.7333e-05
3.38072e-05
3.0165e-05
2.63851e-05
2.24993e-05
1.85288e-05
1.44843e-05
1.04079e-05
6.27863e-06
2.12817e-06
-2.05405e-06
-6.20452e-06
-1.03444e-05
-1.44313e-05
-1.84759e-05
-2.24464e-05
-2.63321e-05
-3.0112e-05
-3.37331e-05
-3.72483e-05
-4.06152e-05
-4.38551e-05
-4.68939e-05
-4.97314e-05
-5.23784e-05
-5.4856e-05
-5.71006e-05
-5.91017e-05
-6.08593e-05
-6.23946e-05
-6.36969e-05
-6.47345e-05
-6.55074e-05
-6.60474e-05
-6.63227e-05
-6.63121e-05
-6.60368e-05
-6.55392e-05
-6.47345e-05
-6.37181e-05
-6.24263e-05
-6.08911e-05
-5.91229e-05
-5.71324e-05
-5.48666e-05
-5.24208e-05
-4.97526e-05
-4.6915e-05
-4.38657e-05
-4.06576e-05
-3.728e-05
-3.37649e-05
-3.01226e-05
-2.63851e-05
-2.24993e-05
-1.85288e-05
-1.44949e-05
-1.03867e-05
-6.24687e-06
-2.08582e-06
2.09641e-06
6.22569e-06
1.03762e-05
1.44737e-05
1.84971e-05
2.24781e-05
2.63427e-05
3.01226e-05
3.37649e-05
3.72906e-05
4.06576e-05
4.38869e-05
4.69256e-05
4.97738e-05
5.24419e-05
5.49089e-05
5.71218e-05
5.91229e-05
6.09017e-05
6.24052e-05
6.37075e-05
6.47663e-05
6.55604e-05
6.60474e-05
6.63439e-05
6.63439e-05
6.60686e-05
6.55392e-05
6.47874e-05
6.37498e-05
6.24581e-05
6.09123e-05
5.91335e-05
5.71112e-05
5.48771e-05
5.24419e-05
4.97844e-05
4.69362e-05
4.39081e-05
4.06893e-05
3.73118e-05
3.38072e-05
3.01332e-05
2.63639e-05
2.24887e-05
1.85288e-05
1.44737e-05
1.04079e-05
6.29981e-06
2.14935e-06
-2.06464e-06
-6.22569e-06
-1.03338e-05
-1.44525e-05
-1.84653e-05
-2.24252e-05
-2.63427e-05
-3.00908e-05
-3.37225e-05
-3.72483e-05
-4.06152e-05
-4.38234e-05
-4.68727e-05
-4.97102e-05
-5.23466e-05
-5.48454e-05
-5.70794e-05
-5.90805e-05
-6.08381e-05
-6.23946e-05
-6.36863e-05
-6.47133e-05
-6.54756e-05
-6.60156e-05
-6.62909e-05
-6.62909e-05
-6.60262e-05
-6.54968e-05
-6.47345e-05
-6.36969e-05
-6.2384e-05
-6.08699e-05
-5.91123e-05
-5.71006e-05
-5.48666e-05
-5.24102e-05
-4.97526e-05
-4.68727e-05
-4.38445e-05
-4.06576e-05
-3.72483e-05
-3.37543e-05
-3.01438e-05
-2.63639e-05
-2.24781e-05
-1.85288e-05
-1.44843e-05
-1.03762e-05
-6.23628e-06
-2.06464e-06
2.08582e-06
6.23628e-06
1.0355e-05
1.44737e-05
1.85077e-05
2.24675e-05
2.63321e-05
3.01014e-05
3.37437e-05
3.72694e-05
4.06364e-05
4.38551e-05
4.68939e-05
4.97738e-05
5.24313e-05
5.48666e-05
5.709e-05
5.91017e-05
6.08805e-05
6.23946e-05
6.36969e-05
6.47239e-05
6.55074e-05
6.60368e-05
6.63015e-05
6.63121e-05
6.6058e-05
6.5518e-05
6.47451e-05
6.36969e-05
6.24263e-05
6.08911e-05
5.91017e-05
5.71112e-05
5.48666e-05
5.2389e-05
4.97526e-05
4.6915e-05
4.38869e-05
4.06576e-05
3.73118e-05
3.38072e-05
3.01226e-05
2.63639e-05
2.24675e-05
1.85077e-05
1.44737e-05
1.04079e-05
6.26804e-06
2.12817e-06
-2.04347e-06
-6.20452e-06
-1.03444e-05
-1.44313e-05
-1.84653e-05
-2.24252e-05
-2.63321e-05
-3.00591e-05
-3.37119e-05
-3.72271e-05
-4.06046e-05
-4.37916e-05
-4.68409e-05
-4.97102e-05
-5.2336e-05
-5.4803e-05
-5.70477e-05
-5.907e-05
-6.08064e-05
-6.2384e-05
-6.36545e-05
-6.46604e-05
-6.54756e-05
-6.59839e-05
-6.62592e-05
-6.62486e-05
-6.59945e-05
-6.54862e-05
-6.46921e-05
-6.36545e-05
-6.2384e-05
-6.08487e-05
-5.907e-05
-5.70794e-05
-5.48242e-05
-5.2389e-05
-4.9742e-05
-4.68621e-05
-4.38128e-05
-4.06046e-05
-3.72589e-05
-3.37649e-05
-3.01014e-05
-2.63427e-05
-2.24781e-05
-1.85077e-05
-1.44737e-05
-1.03762e-05
-6.22569e-06
-2.06464e-06
2.06464e-06
6.22569e-06
1.03656e-05
1.44525e-05
1.84971e-05
2.24675e-05
2.6311e-05
3.00908e-05
3.37331e-05
3.72271e-05
4.06152e-05
4.3834e-05
4.68833e-05
4.9742e-05
5.2389e-05
5.48454e-05
5.70688e-05
5.90911e-05
6.08381e-05
6.23522e-05
6.36439e-05
6.46816e-05
6.54756e-05
6.60156e-05
6.62803e-05
6.62592e-05
6.59839e-05
6.54968e-05
6.47027e-05
6.36757e-05
6.23734e-05
6.08593e-05
5.90805e-05
5.70794e-05
5.48242e-05
5.23678e-05
4.97314e-05
4.68833e-05
4.38763e-05
4.06364e-05
3.728e-05
3.37543e-05
3.0112e-05
2.63639e-05
2.24781e-05
1.84759e-05
1.44525e-05
1.03973e-05
6.27863e-06
2.13876e-06
-2.05405e-06
-6.20452e-06
-1.03232e-05
-1.44101e-05
-1.84759e-05
-2.24358e-05
-2.62898e-05
-3.00697e-05
-3.36801e-05
-3.71953e-05
-4.05835e-05
-4.37704e-05
-4.68197e-05
-4.96679e-05
-5.23255e-05
-5.47819e-05
-5.69947e-05
-5.90276e-05
-6.08064e-05
-6.23416e-05
-6.36228e-05
-6.46392e-05
-6.54121e-05
-6.59627e-05
-6.62274e-05
-6.62062e-05
-6.59521e-05
-6.54227e-05
-6.46816e-05
-6.36228e-05
-6.23204e-05
-6.08276e-05
-5.90488e-05
-5.70371e-05
-5.48242e-05
-5.2336e-05
-4.96997e-05
-4.68409e-05
-4.37916e-05
-4.05941e-05
-3.72271e-05
-3.37437e-05
-3.00697e-05
-2.63321e-05
-2.24781e-05
-1.84865e-05
-1.44631e-05
-1.0355e-05
-6.23628e-06
-2.08582e-06
2.09641e-06
6.24687e-06
1.0355e-05
1.44525e-05
1.84865e-05
2.24252e-05
2.62898e-05
3.00803e-05
3.36907e-05
3.72377e-05
4.05835e-05
4.38022e-05
4.68621e-05
4.96785e-05
5.23678e-05
5.48242e-05
5.70371e-05
5.90382e-05
6.07852e-05
6.2331e-05
6.36016e-05
6.46392e-05
6.54333e-05
6.59733e-05
6.62274e-05
6.6185e-05
6.59415e-05
6.54545e-05
6.46816e-05
6.36334e-05
6.23416e-05
6.08064e-05
5.9017e-05
5.70477e-05
5.48136e-05
5.2336e-05
4.96891e-05
4.68621e-05
4.3834e-05
4.06152e-05
3.72271e-05
3.37437e-05
3.00908e-05
2.63427e-05
2.24675e-05
1.84759e-05
1.44419e-05
1.04079e-05
6.26804e-06
2.12817e-06
-2.07523e-06
-6.2151e-06
-1.03126e-05
-1.43996e-05
-1.84547e-05
-2.2404e-05
-2.62686e-05
-3.00379e-05
-3.36696e-05
-3.71742e-05
-4.05305e-05
-4.37387e-05
-4.67986e-05
-4.96467e-05
-5.22937e-05
-5.47395e-05
-5.69736e-05
-5.89958e-05
-6.07746e-05
-6.22993e-05
-6.35698e-05
-6.45969e-05
-6.53804e-05
-6.59098e-05
-6.61744e-05
-6.61639e-05
-6.58992e-05
-6.53804e-05
-6.4618e-05
-6.3591e-05
-6.22887e-05
-6.07852e-05
-5.90064e-05
-5.70159e-05
-5.47607e-05
-5.23255e-05
-4.96573e-05
-4.68092e-05
-4.37704e-05
-4.05623e-05
-3.72059e-05
-3.37013e-05
-3.00697e-05
-2.6311e-05
-2.2457e-05
-1.84759e-05
-1.44419e-05
-1.0355e-05
-6.23628e-06
-2.07523e-06
2.07523e-06
6.23628e-06
1.03656e-05
1.44631e-05
1.84441e-05
2.24146e-05
2.62686e-05
3.00591e-05
3.37013e-05
3.71847e-05
4.05517e-05
4.3781e-05
4.68092e-05
4.96573e-05
5.23043e-05
5.47607e-05
5.69841e-05
5.89958e-05
6.07429e-05
6.22993e-05
6.35592e-05
6.45969e-05
6.53804e-05
6.58992e-05
6.6185e-05
6.61639e-05
6.58886e-05
6.53698e-05
6.4618e-05
6.36016e-05
6.22993e-05
6.07534e-05
5.89958e-05
5.69736e-05
5.47501e-05
5.23149e-05
4.96679e-05
4.68197e-05
4.38022e-05
4.05729e-05
3.72165e-05
3.37225e-05
3.00591e-05
2.63215e-05
2.24252e-05
1.84865e-05
1.44631e-05
1.0355e-05
6.24687e-06
2.11758e-06
-2.04347e-06
-6.20452e-06
-1.03126e-05
-1.43784e-05
-1.84336e-05
-2.23828e-05
-2.6258e-05
-3.00273e-05
-3.36484e-05
-3.7153e-05
-4.05094e-05
-4.37175e-05
-4.67562e-05
-4.9615e-05
-5.22408e-05
-5.46866e-05
-5.69524e-05
-5.89429e-05
-6.07323e-05
-6.22357e-05
-6.35275e-05
-6.45545e-05
-6.53168e-05
-6.58674e-05
-6.61109e-05
-6.61003e-05
-6.58356e-05
-6.53486e-05
-6.45863e-05
-6.35275e-05
-6.22463e-05
-6.07323e-05
-5.89535e-05
-5.69524e-05
-5.47289e-05
-5.22937e-05
-4.9615e-05
-4.6788e-05
-4.37387e-05
-4.05305e-05
-3.71742e-05
-3.36696e-05
-3.00485e-05
-2.62792e-05
-2.24358e-05
-1.84547e-05
-1.44313e-05
-1.0355e-05
-6.23628e-06
-2.06464e-06
2.07523e-06
6.2151e-06
1.03444e-05
1.44313e-05
1.84336e-05
2.2404e-05
2.6258e-05
3.00273e-05
3.36484e-05
3.71636e-05
4.05305e-05
4.37281e-05
4.67668e-05
4.9615e-05
5.22725e-05
5.47183e-05
5.69312e-05
5.89217e-05
6.06899e-05
6.22357e-05
6.35275e-05
6.45545e-05
6.53274e-05
6.58462e-05
6.61003e-05
6.61109e-05
6.58462e-05
6.53168e-05
6.45545e-05
6.35275e-05
6.22357e-05
6.07323e-05
5.89323e-05
5.69312e-05
5.47077e-05
5.22725e-05
4.96044e-05
4.67668e-05
4.37598e-05
4.05411e-05
3.71953e-05
3.36801e-05
3.00273e-05
2.62898e-05
2.24358e-05
1.84547e-05
1.44631e-05
1.03656e-05
6.25746e-06
2.10699e-06
-2.05405e-06
-6.19393e-06
-1.03126e-05
-1.43784e-05
-1.84124e-05
-2.23828e-05
-2.62263e-05
-2.9985e-05
-3.36166e-05
-3.71212e-05
-4.04882e-05
-4.36857e-05
-4.67139e-05
-4.95514e-05
-5.2209e-05
-5.46654e-05
-5.68783e-05
-5.89111e-05
-6.06581e-05
-6.21934e-05
-6.34428e-05
-6.4491e-05
-6.52851e-05
-6.58039e-05
-6.6058e-05
-6.6058e-05
-6.57827e-05
-6.52851e-05
-6.44804e-05
-6.34745e-05
-6.21934e-05
-6.06687e-05
-5.89323e-05
-5.691e-05
-5.4676e-05
-5.22302e-05
-4.95832e-05
-4.67562e-05
-4.37069e-05
-4.05094e-05
-3.71106e-05
-3.3659e-05
-3.00061e-05
-2.62686e-05
-2.23934e-05
-1.84441e-05
-1.44207e-05
-1.03444e-05
-6.23628e-06
-2.06464e-06
2.09641e-06
6.2151e-06
1.03338e-05
1.43996e-05
1.84336e-05
2.23617e-05
2.62157e-05
3.00061e-05
3.36166e-05
3.71106e-05
4.04988e-05
4.36751e-05
4.67245e-05
4.9562e-05
5.22196e-05
5.46548e-05
5.68677e-05
5.88794e-05
6.06581e-05
6.21934e-05
6.34534e-05
6.4491e-05
6.52533e-05
6.57827e-05
6.60368e-05
6.60368e-05
6.58039e-05
6.52745e-05
6.4491e-05
6.34745e-05
6.21616e-05
6.0637e-05
5.889e-05
5.68889e-05
5.46548e-05
5.2209e-05
4.95726e-05
4.67245e-05
4.36963e-05
4.05094e-05
3.71424e-05
3.36484e-05
2.99956e-05
2.62474e-05
2.2404e-05
1.84653e-05
1.44419e-05
1.03656e-05
6.24687e-06
2.10699e-06
-2.03288e-06
-6.19393e-06
-1.03126e-05
-1.43678e-05
-1.84124e-05
-2.23511e-05
-2.61839e-05
-2.99532e-05
-3.35954e-05
-3.70895e-05
-4.04564e-05
-4.3654e-05
-4.66609e-05
-4.95091e-05
-5.21455e-05
-5.46019e-05
-5.68359e-05
-5.88264e-05
-6.05946e-05
-6.21087e-05
-6.34004e-05
-6.4438e-05
-6.52321e-05
-6.57615e-05
-6.6005e-05
-6.59945e-05
-6.57086e-05
-6.52004e-05
-6.44274e-05
-6.33898e-05
-6.21299e-05
-6.0637e-05
-5.88688e-05
-5.68465e-05
-5.4623e-05
-5.21772e-05
-4.9562e-05
-4.66927e-05
-4.36751e-05
-4.04352e-05
-3.71e-05
-3.36272e-05
-2.99744e-05
-2.62263e-05
-2.23617e-05
-1.84441e-05
-1.44101e-05
-1.03338e-05
-6.24687e-06
-2.07523e-06
2.08582e-06
6.2151e-06
1.03232e-05
1.43996e-05
1.83912e-05
2.23511e-05
2.61945e-05
2.99532e-05
3.35954e-05
3.71e-05
4.04352e-05
4.36222e-05
4.66609e-05
4.95091e-05
5.21455e-05
5.46019e-05
5.67936e-05
5.88159e-05
6.0584e-05
6.21299e-05
6.34004e-05
6.44169e-05
6.51898e-05
6.5698e-05
6.59839e-05
6.59839e-05
6.57192e-05
6.52215e-05
6.44274e-05
6.33898e-05
6.20875e-05
6.05629e-05
5.88159e-05
5.68253e-05
5.46124e-05
5.21772e-05
4.94985e-05
4.66715e-05
4.3654e-05
4.04458e-05
3.71318e-05
3.3606e-05
2.99426e-05
2.62263e-05
2.23934e-05
1.84441e-05
1.44313e-05
1.0355e-05
6.24687e-06
2.10699e-06
-2.04347e-06
-6.17275e-06
-1.0302e-05
-1.43572e-05
-1.837e-05
-2.23299e-05
-2.61945e-05
-2.99109e-05
-3.35531e-05
-3.70471e-05
-4.04141e-05
-4.3601e-05
-4.66186e-05
-4.94561e-05
-5.21137e-05
-5.45489e-05
-5.67618e-05
-5.87523e-05
-6.05311e-05
-6.20452e-05
-6.33263e-05
-6.43745e-05
-6.51792e-05
-6.56768e-05
-6.59309e-05
-6.59415e-05
-6.56556e-05
-6.51262e-05
-6.43639e-05
-6.33157e-05
-6.20663e-05
-6.05523e-05
-5.87841e-05
-5.6783e-05
-5.45595e-05
-5.21349e-05
-4.95091e-05
-4.66398e-05
-4.36116e-05
-4.04246e-05
-3.70365e-05
-3.35743e-05
-2.99638e-05
-2.62263e-05
-2.23511e-05
-1.83912e-05
-1.4389e-05
-1.03232e-05
-6.22569e-06
-2.06464e-06
2.06464e-06
6.22569e-06
1.03126e-05
1.43678e-05
1.83806e-05
2.23299e-05
2.61839e-05
2.99214e-05
3.35319e-05
3.70471e-05
4.03929e-05
4.35904e-05
4.6608e-05
4.9435e-05
5.20819e-05
5.45277e-05
5.67512e-05
5.87417e-05
6.05099e-05
6.20346e-05
6.33369e-05
6.43216e-05
6.51157e-05
6.56451e-05
6.58992e-05
6.58992e-05
6.56662e-05
6.51474e-05
6.43639e-05
6.33051e-05
6.20134e-05
6.04887e-05
5.87523e-05
5.67618e-05
5.45277e-05
5.21031e-05
4.94561e-05
4.6608e-05
4.3601e-05
4.04141e-05
3.70789e-05
3.35531e-05
2.99426e-05
2.61839e-05
2.23723e-05
1.8423e-05
1.44101e-05
1.0355e-05
6.23628e-06
2.10699e-06
-2.04347e-06
-6.18334e-06
-1.02809e-05
-1.4336e-05
-1.83383e-05
-2.22876e-05
-2.61416e-05
-2.99003e-05
-3.35213e-05
-3.70153e-05
-4.03717e-05
-4.35481e-05
-4.65656e-05
-4.94138e-05
-5.20502e-05
-5.44854e-05
-5.66877e-05
-5.871e-05
-6.04464e-05
-6.19816e-05
-6.32628e-05
-6.42898e-05
-6.50839e-05
-6.55815e-05
-6.5878e-05
-6.58462e-05
-6.55709e-05
-6.50627e-05
-6.42898e-05
-6.32628e-05
-6.19816e-05
-6.04782e-05
-5.86994e-05
-5.67194e-05
-5.45066e-05
-5.20608e-05
-4.94138e-05
-4.65974e-05
-4.35693e-05
-4.03823e-05
-3.70153e-05
-3.35213e-05
-2.99109e-05
-2.61945e-05
-2.23299e-05
-1.84124e-05
-1.43678e-05
-1.0302e-05
-6.19393e-06
-2.06464e-06
2.05405e-06
6.18334e-06
1.02915e-05
1.43678e-05
1.83806e-05
2.22981e-05
2.61416e-05
2.98897e-05
3.35213e-05
3.69836e-05
4.03294e-05
4.35587e-05
4.6555e-05
4.93714e-05
5.19972e-05
5.44642e-05
5.66559e-05
5.86676e-05
6.04146e-05
6.1971e-05
6.32416e-05
6.4258e-05
6.50415e-05
6.55709e-05
6.58145e-05
6.58356e-05
6.55709e-05
6.50415e-05
6.42792e-05
6.3231e-05
6.19499e-05
6.04146e-05
5.86676e-05
5.66877e-05
5.44748e-05
5.2029e-05
4.9382e-05
4.6555e-05
4.35269e-05
4.03823e-05
3.70365e-05
3.35213e-05
2.99003e-05
2.61733e-05
2.23299e-05
1.84018e-05
1.4389e-05
1.03232e-05
6.23628e-06
2.10699e-06
-2.04347e-06
-6.17275e-06
-1.02597e-05
-1.43043e-05
-1.83171e-05
-2.2277e-05
-2.61204e-05
-2.98473e-05
-3.34684e-05
-3.69518e-05
-4.03188e-05
-4.34951e-05
-4.65233e-05
-4.93503e-05
-5.19866e-05
-5.44325e-05
-5.66453e-05
-5.86253e-05
-6.03829e-05
-6.18969e-05
-6.31675e-05
-6.42157e-05
-6.49886e-05
-6.55074e-05
-6.57615e-05
-6.57615e-05
-6.55074e-05
-6.4978e-05
-6.42263e-05
-6.31992e-05
-6.18863e-05
-6.03934e-05
-5.86253e-05
-5.66559e-05
-5.44219e-05
-5.19866e-05
-4.93608e-05
-4.65445e-05
-4.34951e-05
-4.03399e-05
-3.69942e-05
-3.34896e-05
-2.98685e-05
-2.61416e-05
-2.23087e-05
-1.837e-05
-1.43572e-05
-1.02915e-05
-6.17275e-06
-2.05405e-06
2.05405e-06
6.19393e-06
1.02915e-05
1.43572e-05
1.83383e-05
2.2277e-05
2.60992e-05
2.98579e-05
3.34472e-05
3.6973e-05
4.02976e-05
4.34846e-05
4.64915e-05
4.92867e-05
5.19443e-05
5.43795e-05
5.65818e-05
5.85723e-05
6.03405e-05
6.18863e-05
6.31463e-05
6.41839e-05
6.49674e-05
6.54756e-05
6.57298e-05
6.57509e-05
6.54756e-05
6.49674e-05
6.41627e-05
6.31675e-05
6.18652e-05
6.03405e-05
5.85829e-05
5.65924e-05
5.44113e-05
5.19655e-05
4.92973e-05
4.65127e-05
4.34951e-05
4.02976e-05
3.69942e-05
3.34684e-05
2.98685e-05
2.61521e-05
2.22876e-05
1.83806e-05
1.43572e-05
1.03232e-05
6.23628e-06
2.10699e-06
-2.03288e-06
-6.15158e-06
-1.02491e-05
-1.43149e-05
-1.83065e-05
-2.22452e-05
-2.60674e-05
-2.97944e-05
-3.3426e-05
-3.69095e-05
-4.02552e-05
-4.34528e-05
-4.64703e-05
-4.92656e-05
-5.19231e-05
-5.43689e-05
-5.655e-05
-5.85723e-05
-6.03087e-05
-6.17911e-05
-6.30934e-05
-6.41098e-05
-6.49357e-05
-6.54121e-05
-6.56768e-05
-6.56662e-05
-6.54015e-05
-6.49039e-05
-6.4131e-05
-6.3104e-05
-6.18228e-05
-6.02876e-05
-5.85406e-05
-5.65924e-05
-5.43689e-05
-5.19125e-05
-4.92656e-05
-4.64809e-05
-4.3474e-05
-4.0287e-05
-3.69412e-05
-3.34472e-05
-2.98261e-05
-2.60992e-05
-2.22664e-05
-1.83489e-05
-1.43254e-05
-1.02809e-05
-6.17275e-06
-2.05405e-06
2.04347e-06
6.18334e-06
1.02915e-05
1.43254e-05
1.83171e-05
2.22346e-05
2.6078e-05
2.9805e-05
3.34154e-05
3.69095e-05
4.02552e-05
4.34316e-05
4.64068e-05
4.92232e-05
5.18808e-05
5.42736e-05
5.65183e-05
5.84982e-05
6.02558e-05
6.17805e-05
6.30616e-05
6.40992e-05
6.48404e-05
6.54015e-05
6.56345e-05
6.56451e-05
6.53909e-05
6.48721e-05
6.41098e-05
6.30616e-05
6.17805e-05
6.02346e-05
5.85194e-05
5.65289e-05
5.43054e-05
5.19019e-05
4.92444e-05
4.6428e-05
4.34316e-05
4.02658e-05
3.69306e-05
3.34472e-05
2.98261e-05
2.60886e-05
2.22664e-05
1.83489e-05
1.43466e-05
1.03126e-05
6.20452e-06
2.08582e-06
-2.02229e-06
-6.14099e-06
-1.02173e-05
-1.42937e-05
-1.82853e-05
-2.22029e-05
-2.60463e-05
-2.97626e-05
-3.33731e-05
-3.68565e-05
-4.02129e-05
-4.33787e-05
-4.63856e-05
-4.92126e-05
-5.1849e-05
-5.42842e-05
-5.64865e-05
-5.84664e-05
-6.02135e-05
-6.17169e-05
-6.30193e-05
-6.40357e-05
-6.4798e-05
-6.53274e-05
-6.55921e-05
-6.55709e-05
-6.52957e-05
-6.4798e-05
-6.40463e-05
-6.30298e-05
-6.17169e-05
-6.02135e-05
-5.84876e-05
-5.64971e-05
-5.4263e-05
-5.18384e-05
-4.92232e-05
-4.64068e-05
-4.33999e-05
-4.02129e-05
-3.68883e-05
-3.34154e-05
-2.97838e-05
-2.60674e-05
-2.2224e-05
-1.83171e-05
-1.43254e-05
-1.02597e-05
-6.17275e-06
-2.04347e-06
2.07523e-06
6.18334e-06
1.02703e-05
1.42937e-05
1.82853e-05
2.21923e-05
2.60463e-05
2.97414e-05
3.33625e-05
3.68565e-05
4.01705e-05
4.33575e-05
4.63645e-05
4.91703e-05
5.18067e-05
5.41995e-05
5.64124e-05
5.84029e-05
6.01499e-05
6.16958e-05
6.29875e-05
6.39933e-05
6.47557e-05
6.52957e-05
6.55392e-05
6.55498e-05
6.52745e-05
6.47663e-05
6.40145e-05
6.29557e-05
6.16958e-05
6.01923e-05
5.84029e-05
5.64547e-05
5.42207e-05
5.18172e-05
4.91703e-05
4.63645e-05
4.33787e-05
4.02129e-05
3.68671e-05
3.34049e-05
2.97626e-05
2.60463e-05
2.22346e-05
1.83277e-05
1.43254e-05
1.02915e-05
6.2151e-06
2.09641e-06
-2.0117e-06
-6.1304e-06
-1.02279e-05
-1.42831e-05
-1.82747e-05
-2.21499e-05
-2.59933e-05
-2.96991e-05
-3.33413e-05
-3.68248e-05
-4.01494e-05
-4.33046e-05
-4.63115e-05
-4.91491e-05
-5.17643e-05
-5.41889e-05
-5.64124e-05
-5.83817e-05
-6.01182e-05
-6.16428e-05
-6.29134e-05
-6.3951e-05
-6.47133e-05
-6.52109e-05
-6.54862e-05
-6.54862e-05
-6.52004e-05
-6.46921e-05
-6.39404e-05
-6.29134e-05
-6.16428e-05
-6.01393e-05
-5.83923e-05
-5.63912e-05
-5.41678e-05
-5.17749e-05
-4.91597e-05
-4.63433e-05
-4.33469e-05
-4.01599e-05
-3.68248e-05
-3.33625e-05
-2.97414e-05
-2.60145e-05
-2.22029e-05
-1.82853e-05
-1.42937e-05
-1.02597e-05
-6.16216e-06
-2.04347e-06
2.05405e-06
6.18334e-06
1.02385e-05
1.42831e-05
1.82324e-05
2.21711e-05
2.60145e-05
2.97097e-05
3.3299e-05
3.67824e-05
4.01176e-05
4.32834e-05
4.62904e-05
4.91173e-05
5.17008e-05
5.41466e-05
5.63277e-05
5.83182e-05
6.00546e-05
6.15899e-05
6.2871e-05
6.38875e-05
6.46816e-05
6.51686e-05
6.54439e-05
6.54439e-05
6.51686e-05
6.4671e-05
6.38875e-05
6.28816e-05
6.16111e-05
6.00652e-05
5.83288e-05
5.63489e-05
5.41572e-05
5.17325e-05
4.91173e-05
4.63009e-05
4.33046e-05
4.01176e-05
3.68248e-05
3.33413e-05
2.97203e-05
2.60145e-05
2.22029e-05
1.82747e-05
1.43254e-05
1.02915e-05
6.18334e-06
2.09641e-06
-2.04347e-06
-6.09864e-06
-1.01856e-05
-1.42513e-05
-1.82324e-05
-2.21499e-05
-2.5951e-05
-2.96673e-05
-3.32778e-05
-3.67718e-05
-4.00858e-05
-4.32304e-05
-4.6248e-05
-4.90644e-05
-5.16902e-05
-5.40831e-05
-5.63065e-05
-5.8297e-05
-6.00335e-05
-6.15369e-05
-6.28287e-05
-6.38663e-05
-6.46074e-05
-6.51262e-05
-6.53804e-05
-6.53698e-05
-6.51157e-05
-6.4618e-05
-6.38239e-05
-6.28075e-05
-6.15369e-05
-6.00335e-05
-5.82865e-05
-5.63171e-05
-5.40936e-05
-5.17008e-05
-4.9075e-05
-4.62798e-05
-4.32728e-05
-4.00858e-05
-3.67612e-05
-3.33202e-05
-2.96885e-05
-2.59933e-05
-2.21711e-05
-1.8243e-05
-1.42619e-05
-1.02279e-05
-6.15158e-06
-2.06464e-06
2.04347e-06
6.16216e-06
1.02385e-05
1.42513e-05
1.8243e-05
2.21287e-05
2.5951e-05
2.96673e-05
3.32672e-05
3.67083e-05
4.00435e-05
4.32199e-05
4.62268e-05
4.90326e-05
5.16161e-05
5.40513e-05
5.62642e-05
5.82229e-05
5.99699e-05
6.14734e-05
6.27546e-05
6.37922e-05
6.45545e-05
6.50521e-05
6.53486e-05
6.53168e-05
6.50945e-05
6.45439e-05
6.3771e-05
6.27757e-05
6.15264e-05
5.99699e-05
5.82441e-05
5.62748e-05
5.40725e-05
5.16584e-05
4.9022e-05
4.62374e-05
4.3241e-05
4.00647e-05
3.67612e-05
3.32672e-05
2.96991e-05
2.59616e-05
2.21605e-05
1.8243e-05
1.42831e-05
1.02703e-05
6.17275e-06
2.08582e-06
-2.0117e-06
-6.1304e-06
-1.01856e-05
-1.4209e-05
-1.81794e-05
-2.20864e-05
-2.59298e-05
-2.9625e-05
-3.32355e-05
-3.66977e-05
-4.00117e-05
-4.31881e-05
-4.61633e-05
-4.89797e-05
-5.15949e-05
-5.40301e-05
-5.62112e-05
-5.81912e-05
-5.99276e-05
-6.14417e-05
-6.27334e-05
-6.37604e-05
-6.45016e-05
-6.50204e-05
-6.52745e-05
-6.52851e-05
-6.50098e-05
-6.45121e-05
-6.37075e-05
-6.2691e-05
-6.14311e-05
-5.99382e-05
-5.81806e-05
-5.62006e-05
-5.40301e-05
-5.16161e-05
-4.90114e-05
-4.62056e-05
-4.31987e-05
-4.00117e-05
-3.67189e-05
-3.32355e-05
-2.96567e-05
-2.59404e-05
-2.21287e-05
-1.8243e-05
-1.42407e-05
-1.01962e-05
-6.14099e-06
-2.04347e-06
2.04347e-06
6.15158e-06
1.01962e-05
1.42513e-05
1.819e-05
2.2097e-05
2.59298e-05
2.96144e-05
3.32037e-05
3.66554e-05
3.99905e-05
4.31457e-05
4.61421e-05
4.89479e-05
5.15525e-05
5.39666e-05
5.61583e-05
5.81276e-05
5.98641e-05
6.13781e-05
6.26487e-05
6.36651e-05
6.44592e-05
6.49674e-05
6.52109e-05
6.52215e-05
6.49568e-05
6.44486e-05
6.36863e-05
6.26699e-05
6.14099e-05
5.98746e-05
5.81276e-05
5.61583e-05
5.39984e-05
5.15737e-05
4.89691e-05
4.61421e-05
4.31881e-05
4.00011e-05
3.66871e-05
3.32143e-05
2.96356e-05
2.5951e-05
2.21181e-05
1.82112e-05
1.42619e-05
1.02279e-05
6.17275e-06
2.08582e-06
-2.02229e-06
-6.10923e-06
-1.0175e-05
-1.41878e-05
-1.81689e-05
-2.20652e-05
-2.58663e-05
-2.9572e-05
-3.31719e-05
-3.66236e-05
-3.99376e-05
-4.31246e-05
-4.60892e-05
-4.8895e-05
-5.15102e-05
-5.39348e-05
-5.61159e-05
-5.80959e-05
-5.98217e-05
-6.13569e-05
-6.26275e-05
-6.36334e-05
-6.43957e-05
-6.49145e-05
-6.5158e-05
-6.51792e-05
-6.49145e-05
-6.43851e-05
-6.36016e-05
-6.26169e-05
-6.13146e-05
-5.98323e-05
-5.80853e-05
-5.61265e-05
-5.39242e-05
-5.15314e-05
-4.89267e-05
-4.61104e-05
-4.3114e-05
-3.998e-05
-3.66342e-05
-3.32037e-05
-2.95932e-05
-2.5898e-05
-2.2097e-05
-1.819e-05
-1.4209e-05
-1.01962e-05
-6.14099e-06
-2.04347e-06
2.05405e-06
6.14099e-06
1.02067e-05
1.4209e-05
1.81689e-05
2.2044e-05
2.58663e-05
2.9572e-05
3.31402e-05
3.6613e-05
3.9927e-05
4.30822e-05
4.60574e-05
4.88526e-05
5.14467e-05
5.38713e-05
5.60736e-05
5.80429e-05
5.97582e-05
6.12617e-05
6.25322e-05
6.35592e-05
6.43427e-05
6.4851e-05
6.50945e-05
6.51051e-05
6.48721e-05
6.43427e-05
6.35804e-05
6.25534e-05
6.12828e-05
5.97794e-05
5.80323e-05
5.60736e-05
5.38925e-05
5.14996e-05
4.88844e-05
4.60786e-05
4.30716e-05
3.99482e-05
3.66448e-05
3.31719e-05
2.9572e-05
2.58874e-05
2.20864e-05
1.819e-05
1.42302e-05
1.02067e-05
6.14099e-06
2.08582e-06
-2.00112e-06
-6.09864e-06
-1.01432e-05
-1.41878e-05
-1.81477e-05
-2.20123e-05
-2.58027e-05
-2.95191e-05
-3.31296e-05
-3.65706e-05
-3.98847e-05
-4.30187e-05
-4.60045e-05
-4.87997e-05
-5.14255e-05
-5.38501e-05
-5.60418e-05
-5.80006e-05
-5.9737e-05
-6.12405e-05
-6.25004e-05
-6.35169e-05
-6.43004e-05
-6.47874e-05
-6.50415e-05
-6.50415e-05
-6.48086e-05
-6.42898e-05
-6.35063e-05
-6.24899e-05
-6.12405e-05
-5.97264e-05
-5.799e-05
-5.60101e-05
-5.38184e-05
-5.14255e-05
-4.88314e-05
-4.60574e-05
-4.30504e-05
-3.99058e-05
-3.65918e-05
-3.31402e-05
-2.95509e-05
-2.58451e-05
-2.20334e-05
-1.81689e-05
-1.41878e-05
-1.01644e-05
-6.1304e-06
-2.04347e-06
2.04347e-06
6.14099e-06
1.01856e-05
1.41772e-05
1.81371e-05
2.20229e-05
2.58133e-05
2.95297e-05
3.30766e-05
3.65283e-05
3.98635e-05
4.30187e-05
4.59833e-05
4.87679e-05
5.13514e-05
5.3776e-05
5.59571e-05
5.79371e-05
5.96629e-05
6.11664e-05
6.24263e-05
6.34428e-05
6.42369e-05
6.47239e-05
6.49886e-05
6.49992e-05
6.47345e-05
6.42263e-05
6.34745e-05
6.24369e-05
6.1177e-05
5.96735e-05
5.79371e-05
5.59889e-05
5.38078e-05
5.13937e-05
4.87891e-05
4.60045e-05
4.30293e-05
3.98847e-05
3.65706e-05
3.30978e-05
2.95191e-05
2.58345e-05
2.2044e-05
1.81689e-05
1.41984e-05
1.01856e-05
6.14099e-06
2.07523e-06
-2.0117e-06
-6.06687e-06
-1.01326e-05
-1.4156e-05
-1.80947e-05
-2.19911e-05
-2.5771e-05
-2.94767e-05
-3.30555e-05
-3.64965e-05
-3.98105e-05
-4.2934e-05
-4.59198e-05
-4.87362e-05
-5.13302e-05
-5.37654e-05
-5.59359e-05
-5.79053e-05
-5.96417e-05
-6.11134e-05
-6.2384e-05
-6.3411e-05
-6.41839e-05
-6.46816e-05
-6.49357e-05
-6.49463e-05
-6.46604e-05
-6.41627e-05
-6.34004e-05
-6.2384e-05
-6.11346e-05
-5.96311e-05
-5.78841e-05
-5.59254e-05
-5.37125e-05
-5.13408e-05
-4.87467e-05
-4.59409e-05
-4.29657e-05
-3.98317e-05
-3.65389e-05
-3.30978e-05
-2.94873e-05
-2.58027e-05
-2.20017e-05
-1.81371e-05
-1.41666e-05
-1.01644e-05
-6.10923e-06
-2.03288e-06
2.03288e-06
6.1304e-06
1.0175e-05
1.4156e-05
1.80947e-05
2.19593e-05
2.5771e-05
2.94556e-05
3.30237e-05
3.64859e-05
3.97894e-05
4.29234e-05
4.58986e-05
4.86938e-05
5.12984e-05
5.36595e-05
5.58512e-05
5.78206e-05
5.9557e-05
6.10711e-05
6.23204e-05
6.33475e-05
6.40886e-05
6.4618e-05
6.48721e-05
6.48721e-05
6.46074e-05
6.41098e-05
6.33475e-05
6.2331e-05
6.10605e-05
5.95782e-05
5.78524e-05
5.59042e-05
5.36913e-05
5.13196e-05
4.86938e-05
4.59092e-05
4.29657e-05
3.98e-05
3.64965e-05
3.30343e-05
2.94767e-05
2.58027e-05
2.20123e-05
1.81053e-05
1.41666e-05
1.0175e-05
6.15158e-06
2.08582e-06
-2.0117e-06
-6.07746e-06
-1.0122e-05
-1.41137e-05
-1.80842e-05
-2.19276e-05
-2.57286e-05
-2.94026e-05
-3.29919e-05
-3.64542e-05
-3.97047e-05
-4.2881e-05
-4.58457e-05
-4.86303e-05
-5.12667e-05
-5.36701e-05
-5.58301e-05
-5.77994e-05
-5.95252e-05
-6.10181e-05
-6.22887e-05
-6.33051e-05
-6.40463e-05
-6.45545e-05
-6.48298e-05
-6.48298e-05
-6.45333e-05
-6.40357e-05
-6.32839e-05
-6.22675e-05
-6.10287e-05
-5.95252e-05
-5.77888e-05
-5.58195e-05
-5.36278e-05
-5.12455e-05
-4.86515e-05
-4.58457e-05
-4.2881e-05
-3.97788e-05
-3.64754e-05
-3.30237e-05
-2.94344e-05
-2.57604e-05
-2.19805e-05
-1.80842e-05
-1.41772e-05
-1.01432e-05
-6.06687e-06
-2.02229e-06
2.0117e-06
6.09864e-06
1.01538e-05
1.41349e-05
1.8063e-05
2.19276e-05
2.57074e-05
2.94026e-05
3.29919e-05
3.64118e-05
3.97153e-05
4.28493e-05
4.58245e-05
4.85879e-05
5.1182e-05
5.35642e-05
5.57665e-05
5.77041e-05
5.94511e-05
6.09652e-05
6.22252e-05
6.32416e-05
6.39722e-05
6.44698e-05
6.47557e-05
6.47663e-05
6.45016e-05
6.39722e-05
6.32204e-05
6.22252e-05
6.09652e-05
5.94723e-05
5.77465e-05
5.57983e-05
5.3596e-05
5.12031e-05
4.86197e-05
4.58457e-05
4.28599e-05
3.97153e-05
3.64436e-05
3.30025e-05
2.94132e-05
2.57498e-05
2.19805e-05
1.80736e-05
1.41455e-05
1.01538e-05
6.14099e-06
2.06464e-06
-1.99053e-06
-6.05629e-06
-1.0122e-05
-1.40925e-05
-1.80418e-05
-2.19064e-05
-2.56863e-05
-2.93497e-05
-3.2939e-05
-3.63695e-05
-3.96306e-05
-4.27858e-05
-4.57715e-05
-4.85562e-05
-5.11714e-05
-5.35642e-05
-5.57348e-05
-5.76935e-05
-5.94088e-05
-6.09017e-05
-6.21828e-05
-6.31887e-05
-6.39298e-05
-6.44486e-05
-6.46921e-05
-6.46816e-05
-6.44274e-05
-6.39192e-05
-6.31675e-05
-6.21722e-05
-6.09017e-05
-5.93982e-05
-5.76935e-05
-5.57136e-05
-5.35431e-05
-5.11502e-05
-4.85562e-05
-4.57927e-05
-4.28175e-05
-3.96941e-05
-3.63907e-05
-3.2939e-05
-2.93815e-05
-2.57286e-05
-2.19276e-05
-1.80736e-05
-1.41349e-05
-1.01115e-05
-6.07746e-06
-2.02229e-06
2.0117e-06
6.09864e-06
1.01115e-05
1.40925e-05
1.80418e-05
2.18958e-05
2.56651e-05
2.93603e-05
3.29072e-05
3.63695e-05
3.96306e-05
4.27434e-05
4.57398e-05
4.85138e-05
5.10973e-05
5.3469e-05
5.56607e-05
5.76088e-05
5.93241e-05
6.08593e-05
6.21087e-05
6.30934e-05
6.38875e-05
6.43533e-05
6.4618e-05
6.46392e-05
6.43851e-05
6.38557e-05
6.31145e-05
6.20981e-05
6.08699e-05
5.93664e-05
5.76512e-05
5.5703e-05
5.34901e-05
5.11184e-05
4.85244e-05
4.57398e-05
4.27752e-05
3.96623e-05
3.63695e-05
3.29284e-05
2.93815e-05
2.57286e-05
2.19487e-05
1.80524e-05
1.41031e-05
1.01432e-05
6.11981e-06
2.03288e-06
-2.00112e-06
-6.02452e-06
-1.00903e-05
-1.40819e-05
-1.80206e-05
-2.18746e-05
-2.56333e-05
-2.93073e-05
-3.28649e-05
-3.62954e-05
-3.9567e-05
-4.27328e-05
-4.56657e-05
-4.84609e-05
-5.10655e-05
-5.34478e-05