/*--------------------------------*- C++ -*----------------------------------*\
  =========                 |
  \\      /  F ield         | OpenFOAM: The Open Source CFD Toolbox
   \\    /   O peration     | Website:  https://openfoam.org
    \\  /    A nd           | Version:  7
     \\/     M anipulation  |
\*---------------------------------------------------------------------------*/
FoamFile
{
    version     2.0;
    format      ascii;
    class       volScalarField;
    location    "0.03";
    object      gradTx;
}
// * * * * * * * * * * * * * * * * * * * * * * * * * * * * * * * * * * * * * //

dimensions      [0 -1 0 1 0 0 0];

internalField   nonuniform List<scalar> 
10000
(
0.00316503
0.00948447
0.0157721
0.0220066
0.0281665
0.0342311
0.0401793
0.0459906
0.0516444
0.0571208
0.0623998
0.0674621
0.0722888
0.0768615
0.0811624
0.0851743
0.0888808
0.0922663
0.0953162
0.0980166
0.100355
0.10232
0.1039
0.105088
0.105874
0.106253
0.106218
0.105767
0.104896
0.103604
0.101892
0.0997599
0.0972119
0.0942531
0.0908907
0.0871343
0.0829959
0.0784899
0.0736333
0.0684447
0.0629446
0.0571548
0.0510981
0.0447989
0.0382838
0.0315819
0.0247252
0.0177474
0.0106831
0.00356698
-0.00356629
-0.0106824
-0.0177467
-0.0247246
-0.0315813
-0.0382831
-0.0447983
-0.0510975
-0.0571542
-0.062944
-0.0684441
-0.0736326
-0.0784894
-0.0829953
-0.0871338
-0.0908902
-0.0942526
-0.0972114
-0.0997594
-0.101891
-0.103604
-0.104896
-0.105767
-0.106218
-0.106253
-0.105874
-0.105088
-0.1039
-0.102319
-0.100355
-0.0980165
-0.095316
-0.0922662
-0.0888807
-0.0851742
-0.0811623
-0.0768615
-0.0722888
-0.0674621
-0.0623997
-0.0571207
-0.0516444
-0.0459905
-0.0401793
-0.034231
-0.0281665
-0.0220065
-0.0157722
-0.00948468
-0.00316514
0.0031722
0.0095057
0.0158072
0.0220556
0.0282295
0.0343079
0.0402698
0.0460947
0.0517619
0.0572515
0.0625435
0.0676185
0.0724576
0.0770423
0.0813548
0.0853779
0.089095
0.0924907
0.09555
0.0982592
0.100606
0.102577
0.104165
0.105358
0.106149
0.106532
0.1065
0.106052
0.105182
0.103891
0.102178
0.100045
0.0974948
0.0945319
0.0911638
0.0873997
0.0832518
0.0787346
0.0738652
0.0686629
0.0631483
0.0573432
0.0512702
0.044953
0.0384175
0.031693
0.024812
0.0178092
0.0107199
0.00357921
-0.00357852
-0.0107192
-0.0178085
-0.0248113
-0.0316923
-0.0384168
-0.0449523
-0.0512696
-0.0573426
-0.0631477
-0.0686623
-0.0738647
-0.078734
-0.0832513
-0.0873992
-0.0911633
-0.0945314
-0.0974943
-0.100045
-0.102178
-0.103891
-0.105182
-0.106051
-0.1065
-0.106531
-0.106149
-0.105357
-0.104164
-0.102577
-0.100605
-0.098259
-0.0955498
-0.0924905
-0.0890949
-0.0853778
-0.0813548
-0.0770423
-0.0724576
-0.0676185
-0.0625434
-0.0572514
-0.0517619
-0.0460946
-0.0402697
-0.0343078
-0.0282294
-0.0220555
-0.0158072
-0.00950576
-0.00317222
0.00318626
0.0095479
0.0158774
0.0221537
0.0283554
0.0344614
0.0404507
0.0463027
0.0519968
0.0575128
0.0628307
0.0679312
0.0727951
0.0774039
0.0817397
0.0857851
0.0895236
0.0929393
0.0960175
0.0987443
0.101107
0.103093
0.104693
0.105898
0.106698
0.107089
0.107064
0.10662
0.105754
0.104465
0.102752
0.100616
0.0980611
0.0950904
0.0917109
0.0879316
0.0837646
0.0792247
0.0743296
0.0690994
0.0635557
0.0577206
0.0516156
0.0452629
0.0386867
0.0319163
0.0249859
0.0179326
0.0107932
0.00360349
-0.00360281
-0.0107925
-0.0179319
-0.0249852
-0.0319156
-0.038686
-0.0452622
-0.051615
-0.0577199
-0.0635551
-0.0690988
-0.074329
-0.0792241
-0.083764
-0.0879311
-0.0917104
-0.0950899
-0.0980606
-0.100616
-0.102752
-0.104465
-0.105754
-0.10662
-0.107064
-0.107089
-0.106698
-0.105897
-0.104693
-0.103093
-0.101107
-0.0987441
-0.0960174
-0.0929392
-0.0895235
-0.085785
-0.0817396
-0.0774039
-0.0727951
-0.0679312
-0.0628307
-0.0575127
-0.0519968
-0.0463027
-0.0404507
-0.0344613
-0.0283553
-0.0221536
-0.0158773
-0.00954779
-0.00318621
0.00320728
0.009611
0.0159825
0.0223007
0.028544
0.0346914
0.0407219
0.0466146
0.0523488
0.0579045
0.0632613
0.0683999
0.0733011
0.0779461
0.0823168
0.0863958
0.0901663
0.0936124
0.096719
0.0994721
0.101859
0.103867
0.105486
0.106707
0.107523
0.107925
0.10791
0.107473
0.106612
0.105326
0.103613
0.101474
0.0989122
0.0959303
0.0925341
0.0887322
0.0845362
0.0799615
0.0750268
0.0697539
0.0641665
0.0582874
0.0521369
0.0457328
0.0390957
0.0322547
0.0252476
0.0181165
0.0109017
0.00363925
-0.00363857
-0.010901
-0.0181158
-0.0252469
-0.032254
-0.0390951
-0.0457321
-0.0521362
-0.0582868
-0.0641658
-0.0697533
-0.0750262
-0.0799609
-0.0845357
-0.0887316
-0.0925336
-0.0959298
-0.0989117
-0.101474
-0.103612
-0.105325
-0.106612
-0.107473
-0.10791
-0.107925
-0.107522
-0.106707
-0.105486
-0.103867
-0.101859
-0.0994719
-0.0967189
-0.0936123
-0.0901662
-0.0863957
-0.0823167
-0.0779461
-0.0733011
-0.0683999
-0.0632613
-0.0579044
-0.0523488
-0.0466145
-0.0407219
-0.0346914
-0.028544
-0.0223007
-0.0159825
-0.00961088
-0.00320721
0.00323526
0.00969499
0.0161225
0.0224964
0.0287952
0.0349978
0.041083
0.0470298
0.0528177
0.0584262
0.063835
0.0690245
0.0739753
0.0786686
0.083086
0.0872099
0.0910232
0.0945098
0.0976544
0.100443
0.102862
0.104899
0.106544
0.107788
0.108622
0.10904
0.109037
0.10861
0.107756
0.106473
0.104761
0.10262
0.10005
0.0970544
0.0936369
0.0898051
0.08557
0.0809475
0.0759579
0.0706256
0.0649787
0.0590435
0.0528378
0.0463708
0.0396532
0.0327131
0.0255973
0.0183583
0.0110421
0.00368517
-0.00368447
-0.0110415
-0.0183576
-0.0255966
-0.0327124
-0.0396525
-0.0463701
-0.0528372
-0.0590429
-0.0649781
-0.070625
-0.0759573
-0.080947
-0.0855694
-0.0898045
-0.0936364
-0.0970539
-0.100049
-0.102619
-0.10476
-0.106473
-0.107755
-0.10861
-0.109037
-0.10904
-0.108621
-0.107787
-0.106544
-0.104899
-0.102861
-0.100443
-0.0976543
-0.0945097
-0.0910231
-0.0872098
-0.083086
-0.0786686
-0.0739753
-0.0690245
-0.063835
-0.0584261
-0.0528177
-0.0470298
-0.0410829
-0.0349977
-0.0287951
-0.0224963
-0.0161225
-0.00969493
-0.00323522
0.00327021
0.00979982
0.0162971
0.0227405
0.0291086
0.03538
0.0415335
0.0475481
0.0534029
0.0590774
0.0645512
0.0698044
0.0748174
0.0795711
0.084047
0.0882271
0.0920942
0.0956317
0.098824
0.101656
0.104116
0.106189
0.107867
0.109138
0.109996
0.110433
0.110446
0.11003
0.109184
0.107907
0.106197
0.104054
0.101477
0.0984665
0.0950245
0.091156
0.0868713
0.0821868
0.077124
0.0717115
0.0659865
0.0599854
0.0537242
0.0471923
0.0403756
0.0332995
0.0260331
0.0186504
0.0112074
0.00373834
-0.00373765
-0.0112067
-0.0186497
-0.0260324
-0.0332989
-0.0403749
-0.0471916
-0.0537235
-0.0599848
-0.0659859
-0.0717109
-0.0771234
-0.0821862
-0.0868708
-0.0911555
-0.095024
-0.0984661
-0.101476
-0.104053
-0.106196
-0.107906
-0.109184
-0.11003
-0.110445
-0.110433
-0.109995
-0.109138
-0.107866
-0.106189
-0.104116
-0.101656
-0.0988239
-0.0956316
-0.0920941
-0.0882271
-0.084047
-0.0795711
-0.0748174
-0.0698044
-0.0645512
-0.0590774
-0.0534029
-0.0475481
-0.0415335
-0.0353799
-0.0291085
-0.0227405
-0.0162971
-0.00979977
-0.00327018
0.00331208
0.00992531
0.0165061
0.0230328
0.0294838
0.0358376
0.0420731
0.0481688
0.0541039
0.0598576
0.0654093
0.070739
0.0758267
0.0806532
0.0851995
0.0894474
0.0933792
0.096978
0.100228
0.103114
0.105622
0.107739
0.109455
0.110759
0.111644
0.112104
0.112135
0.111732
0.110896
0.109626
0.10792
0.105777
0.103196
0.100172
0.0967044
0.0927937
0.0884485
0.0836861
0.0785287
0.0730059
0.0671742
0.0610997
0.0548022
0.0482289
0.0412974
0.034027
0.0265464
0.018975
0.011382
0.00379292
-0.00379223
-0.0113813
-0.0189743
-0.0265457
-0.0340263
-0.0412967
-0.0482282
-0.0548015
-0.0610991
-0.0671736
-0.0730052
-0.0785281
-0.0836855
-0.088448
-0.0927932
-0.0967039
-0.100172
-0.103195
-0.105777
-0.107919
-0.109625
-0.110896
-0.111732
-0.112134
-0.112104
-0.111644
-0.110759
-0.109454
-0.107739
-0.105621
-0.103114
-0.100228
-0.0969779
-0.0933791
-0.0894473
-0.0851994
-0.0806532
-0.0758267
-0.070739
-0.0654093
-0.0598576
-0.0541039
-0.0481688
-0.042073
-0.0358376
-0.0294837
-0.0230327
-0.016506
-0.00992526
-0.00331203
0.00336074
0.0100713
0.0167492
0.0233727
0.0299202
0.0363701
0.0427008
0.0488911
0.0549198
0.0607658
0.0664085
0.0718275
0.0770026
0.0819141
0.0865429
0.0908702
0.0948779
0.0985488
0.101866
0.104815
0.10738
0.109548
0.111309
0.112652
0.113568
0.114053
0.114103
0.113715
0.112889
0.111627
0.109928
0.10779
0.10521
0.102179
0.0986876
0.094731
0.0903136
0.0854575
0.0801827
0.0745007
0.0685048
0.0623455
0.0560733
0.0495506
0.0424953
0.0349127
0.02711
0.0192924
0.0115355
0.00383775
-0.00383708
-0.0115348
-0.0192918
-0.0271093
-0.0349121
-0.0424947
-0.0495499
-0.0560727
-0.0623449
-0.0685041
-0.0745001
-0.0801821
-0.085457
-0.090313
-0.0947305
-0.0986871
-0.102178
-0.105209
-0.10779
-0.109927
-0.111627
-0.112889
-0.113715
-0.114103
-0.114053
-0.113568
-0.112651
-0.111309
-0.109548
-0.10738
-0.104815
-0.101866
-0.0985487
-0.0948778
-0.0908701
-0.0865428
-0.0819141
-0.0770026
-0.0718275
-0.0664085
-0.0607658
-0.0549198
-0.0488911
-0.0427008
-0.03637
-0.0299202
-0.0233727
-0.0167491
-0.0100712
-0.0033607
0.00341615
0.0102375
0.017026
0.0237599
0.0304173
0.0369766
0.0434161
0.0497142
0.0558496
0.0618012
0.0675479
0.073069
0.0783441
0.0833531
0.0880765
0.0924951
0.0965902
0.100344
0.103739
0.10676
0.109391
0.111619
0.11343
0.114816
0.115768
0.11628
0.11635
0.115976
0.11516
0.113906
0.112216
0.11009
0.107521
0.104495
0.10099
0.0969879
0.0924819
0.087519
0.0821223
0.076196
0.0698938
0.0636085
0.0575081
0.0513273
0.0441538
0.0359639
0.0276459
0.0195192
0.0116119
0.00385374
-0.00385306
-0.0116113
-0.0195185
-0.0276452
-0.0359633
-0.0441532
-0.0513267
-0.0575075
-0.0636078
-0.0698932
-0.0761954
-0.0821217
-0.0875184
-0.0924813
-0.0969873
-0.10099
-0.104495
-0.107521
-0.11009
-0.112216
-0.113905
-0.11516
-0.115975
-0.116349
-0.11628
-0.115768
-0.114816
-0.11343
-0.111618
-0.109391
-0.10676
-0.103739
-0.100344
-0.0965902
-0.092495
-0.0880765
-0.0833531
-0.0783441
-0.073069
-0.0675479
-0.0618012
-0.0558496
-0.0497142
-0.043416
-0.0369765
-0.0304173
-0.0237598
-0.0170259
-0.0102374
-0.00341612
0.00347822
0.0104237
0.0173361
0.0241937
0.0309743
0.0376562
0.0442177
0.0506369
0.0568922
0.0629624
0.068826
0.0744622
0.0798501
0.0849692
0.0897995
0.0943214
0.0985157
0.102364
0.105848
0.108951
0.111657
0.113951
0.115821
0.117255
0.118245
0.118786
0.118874
0.118511
0.117702
0.116454
0.114775
0.112669
0.110129
0.107132
0.103637
0.0995996
0.0949645
0.0898784
0.0844633
0.0781478
0.0711564
0.064586
0.0589315
0.0540138
0.0467568
0.037085
0.0279462
0.0194954
0.011521
0.00381224
-0.00381157
-0.0115203
-0.0194947
-0.0279455
-0.0370843
-0.0467561
-0.0540131
-0.0589309
-0.0645854
-0.0711557
-0.0781472
-0.0844627
-0.0898779
-0.094964
-0.0995991
-0.103637
-0.107132
-0.110128
-0.112669
-0.114775
-0.116454
-0.117702
-0.118511
-0.118874
-0.118785
-0.118245
-0.117254
-0.115821
-0.113951
-0.111657
-0.108951
-0.105848
-0.102364
-0.0985156
-0.0943213
-0.0897995
-0.0849691
-0.07985
-0.0744622
-0.068826
-0.0629624
-0.0568922
-0.0506368
-0.0442176
-0.0376562
-0.0309743
-0.0241936
-0.0173361
-0.0104236
-0.0034782
0.00354686
0.0106295
0.017679
0.0246733
0.0315903
0.038408
0.0451045
0.0516578
0.0580462
0.064248
0.0702416
0.0760056
0.0815191
0.0867609
0.0917107
0.0963482
0.100654
0.104608
0.108192
0.111388
0.114179
0.116548
0.118482
0.11997
0.121001
0.12157
0.121676
0.121319
0.120507
0.119258
0.117588
0.115511
0.113022
0.110102
0.106663
0.102652
0.0977472
0.0924232
0.0875687
0.0806496
0.0718831
0.0645433
0.0595211
0.0589481
0.0516948
0.0376108
0.0275125
0.0189637
0.0111457
0.0036798
-0.00367915
-0.011145
-0.018963
-0.0275118
-0.0376101
-0.0516941
-0.0589475
-0.0595205
-0.0645427
-0.0718825
-0.080649
-0.0875681
-0.0924226
-0.0977467
-0.102651
-0.106663
-0.110102
-0.113022
-0.115511
-0.117588
-0.119258
-0.120507
-0.121318
-0.121676
-0.12157
-0.121001
-0.119969
-0.118482
-0.116548
-0.114178
-0.111388
-0.108192
-0.104608
-0.100653
-0.0963481
-0.0917107
-0.0867609
-0.081519
-0.0760056
-0.0702416
-0.064248
-0.0580462
-0.0516578
-0.0451044
-0.0384079
-0.0315902
-0.0246732
-0.0176789
-0.0106294
-0.00354682
0.00362191
0.0108546
0.018054
0.0251979
0.0322642
0.0392305
0.046075
0.0527754
0.0593098
0.0656561
0.0717926
0.0776975
0.0833493
0.0887266
0.0938085
0.0985741
0.103003
0.107075
0.110771
0.114072
0.116958
0.119412
0.121419
0.122965
0.12404
0.124638
0.124757
0.124397
0.123567
0.122298
0.120624
0.118585
0.116167
0.113414
0.11009
0.106429
0.100789
0.0943457
0.0925925
0.084864
0.0710645
0.0620766
0.0555615
0.0504573
0.0433696
0.0340863
0.0254835
0.0176703
0.0104004
0.00343459
-0.00343394
-0.0103998
-0.0176696
-0.0254829
-0.0340857
-0.043369
-0.0504566
-0.0555608
-0.0620759
-0.0710639
-0.0848634
-0.0925919
-0.0943451
-0.100788
-0.106429
-0.110089
-0.113414
-0.116167
-0.118584
-0.120624
-0.122298
-0.123566
-0.124396
-0.124757
-0.124638
-0.124039
-0.122964
-0.121419
-0.119412
-0.116958
-0.114072
-0.110771
-0.107075
-0.103003
-0.098574
-0.0938085
-0.0887266
-0.0833493
-0.0776975
-0.0717926
-0.0656561
-0.0593098
-0.0527754
-0.046075
-0.0392305
-0.0322641
-0.0251979
-0.0180539
-0.0108545
-0.00362189
0.00370326
0.0110986
0.0184604
0.0257666
0.0329947
0.0401224
0.0471275
0.0539878
0.0606809
0.0671846
0.0734769
0.0795355
0.0853386
0.0908642
0.096091
0.100998
0.105563
0.109766
0.113586
0.117004
0.119998
0.122548
0.124636
0.126245
0.127367
0.127995
0.128126
0.127749
0.12687
0.12555
0.123833
0.121844
0.119458
0.117111
0.113669
0.112006
0.104463
0.0914179
0.0834298
0.0750014
0.0653156
0.0570349
0.0500989
0.0438644
0.0371662
0.0298245
0.0226236
0.0158053
0.00933471
0.00308668
-0.00308602
-0.00933405
-0.0158046
-0.0226229
-0.0298238
-0.0371656
-0.0438638
-0.0500983
-0.0570343
-0.065315
-0.0750008
-0.0834293
-0.0914174
-0.104462
-0.112006
-0.113668
-0.11711
-0.119457
-0.121844
-0.123833
-0.125549
-0.12687
-0.127749
-0.128125
-0.127994
-0.127366
-0.126245
-0.124635
-0.122548
-0.119997
-0.117004
-0.113586
-0.109766
-0.105563
-0.100997
-0.096091
-0.0908642
-0.0853386
-0.0795355
-0.0734769
-0.0671847
-0.0606809
-0.0539878
-0.0471275
-0.0401224
-0.0329946
-0.0257666
-0.0184604
-0.0110985
-0.00370324
0.00379072
0.0113609
0.0188975
0.0263782
0.0337804
0.0410819
0.0482602
0.0552928
0.0621572
0.0688311
0.0752918
0.081517
0.0874842
0.0931712
0.0985558
0.103616
0.108331
0.112678
0.116636
0.120185
0.1233
0.125959
0.128139
0.129819
0.130987
0.131646
0.131798
0.1314
0.13041
0.128991
0.127111
0.125297
0.122507
0.121702
0.115272
0.103266
0.0934548
0.0832775
0.0745665
0.0662705
0.0580548
0.0505569
0.0438548
0.0376647
0.0315467
0.0253746
0.0193455
0.0135684
0.00803224
0.00265877
-0.00265814
-0.00803157
-0.0135677
-0.0193449
-0.0253739
-0.0315461
-0.037664
-0.0438542
-0.0505563
-0.0580542
-0.0662699
-0.074566
-0.083277
-0.0934542
-0.103265
-0.115272
-0.121701
-0.122506
-0.125297
-0.12711
-0.128991
-0.13041
-0.1314
-0.131798
-0.131646
-0.130987
-0.129819
-0.128139
-0.125959
-0.1233
-0.120184
-0.116636
-0.112678
-0.10833
-0.103616
-0.0985557
-0.0931711
-0.0874842
-0.081517
-0.0752918
-0.0688311
-0.0621573
-0.0552928
-0.0482601
-0.0410819
-0.0337804
-0.0263781
-0.0188975
-0.0113608
-0.00379068
0.00388408
0.011641
0.0193642
0.0270313
0.0346197
0.042107
0.0494706
0.0566878
0.063736
0.0705924
0.0772344
0.0836388
0.0897831
0.0956443
0.1012
0.106427
0.111304
0.115808
0.119919
0.123614
0.126867
0.129653
0.13194
0.133697
0.134907
0.135592
0.135803
0.135426
0.13416
0.132678
0.130104
0.129512
0.123357
0.111702
0.102248
0.0921515
0.0826541
0.0735326
0.0651666
0.0573532
0.0499853
0.0432054
0.0370322
0.031336
0.0259342
0.0207442
0.0157875
0.011071
0.00655568
0.00217054
-0.00216988
-0.00655503
-0.0110704
-0.0157869
-0.0207435
-0.0259335
-0.0313353
-0.0370316
-0.0432048
-0.0499847
-0.0573526
-0.065166
-0.0735321
-0.0826536
-0.092151
-0.102247
-0.111701
-0.123356
-0.129512
-0.130103
-0.132678
-0.13416
-0.135426
-0.135803
-0.135592
-0.134907
-0.133697
-0.13194
-0.129653
-0.126867
-0.123613
-0.119919
-0.115808
-0.111303
-0.106427
-0.1012
-0.0956442
-0.0897831
-0.0836388
-0.0772343
-0.0705924
-0.063736
-0.0566878
-0.0494705
-0.042107
-0.0346197
-0.0270313
-0.0193642
-0.0116409
-0.00388406
0.00398317
0.0119382
0.0198595
0.0277245
0.0355107
0.0431954
0.050756
0.0581698
0.0654139
0.0724652
0.0793008
0.0858974
0.0922315
0.0982798
0.104019
0.109426
0.114478
0.119153
0.123431
0.127288
0.130701
0.133638
0.136056
0.137902
0.13913
0.139785
0.140166
0.14011
0.137896
0.137227
0.130886
0.119061
0.109487
0.0993061
0.0896906
0.0802843
0.0713425
0.0629151
0.0551128
0.0479035
0.0412541
0.0351854
0.0296807
0.0246698
0.020075
0.015853
0.011969
0.00835849
0.00494069
0.00163493
-0.00163429
-0.00494002
-0.00835784
-0.0119684
-0.0158524
-0.0200743
-0.0246692
-0.0296801
-0.0351848
-0.0412535
-0.047903
-0.0551123
-0.0629146
-0.071342
-0.0802838
-0.0896901
-0.0993056
-0.109487
-0.11906
-0.130885
-0.137227
-0.137896
-0.140109
-0.140166
-0.139785
-0.139129
-0.137902
-0.136056
-0.133638
-0.130701
-0.127288
-0.123431
-0.119153
-0.114478
-0.109426
-0.104019
-0.0982797
-0.0922315
-0.0858973
-0.0793008
-0.0724653
-0.0654139
-0.0581698
-0.050756
-0.0431954
-0.0355106
-0.0277245
-0.0198594
-0.0119382
-0.00398314
0.00408769
0.0122518
0.0203821
0.0284561
0.0364511
0.0443445
0.0521136
0.0597355
0.0671872
0.0744455
0.0814871
0.0882882
0.0948251
0.101073
0.107009
0.112609
0.117849
0.122707
0.127164
0.131201
0.134796
0.13792
0.140518
0.142494
0.143686
0.144011
0.144723
0.146704
0.139844
0.127201
0.116917
0.10615
0.0960365
0.0861782
0.0767774
0.0678244
0.0594063
0.0515784
0.0443866
0.0378278
0.0318872
0.0265569
0.0217994
0.0175592
0.0138207
0.0106073
0.00786504
0.00544511
0.00320893
0.00106127
-0.00106062
-0.0032083
-0.00544446
-0.00786439
-0.0106066
-0.01382
-0.0175585
-0.0217988
-0.0265563
-0.0318866
-0.0378272
-0.044386
-0.0515779
-0.0594058
-0.0678239
-0.0767769
-0.0861778
-0.0960361
-0.10615
-0.116917
-0.1272
-0.139843
-0.146703
-0.144723
-0.144011
-0.143686
-0.142493
-0.140518
-0.13792
-0.134796
-0.131201
-0.127164
-0.122707
-0.117848
-0.112609
-0.107009
-0.101073
-0.094825
-0.0882882
-0.0814871
-0.0744455
-0.0671872
-0.0597355
-0.0521136
-0.0443445
-0.0364511
-0.0284561
-0.0203821
-0.0122517
-0.00408769
0.0041974
0.012581
0.0209308
0.0292241
0.0374386
0.0455513
0.0535398
0.0613809
0.0690516
0.0765286
0.0837883
0.0908065
0.097559
0.104021
0.110166
0.115971
0.12141
0.126462
0.131109
0.135337
0.139137
0.142492
0.145361
0.147619
0.148858
0.147594
0.147752
0.14187
0.12732
0.11459
0.10323
0.0924052
0.0821723
0.0724548
0.0632975
0.0547287
0.0467954
0.039536
0.0329711
0.0270891
0.0218755
0.0173298
0.0133819
0.00993372
0.00703282
0.00488516
0.00343568
0.00234614
0.00138775
0.000461527
-0.000460881
-0.00138711
-0.00234552
-0.00343506
-0.00488451
-0.00703221
-0.00993312
-0.0133813
-0.0173292
-0.021875
-0.0270885
-0.0329706
-0.0395355
-0.0467949
-0.0547281
-0.0632971
-0.0724543
-0.0821719
-0.0924048
-0.103229
-0.114589
-0.127319
-0.141869
-0.147752
-0.147594
-0.148858
-0.147619
-0.145361
-0.142492
-0.139137
-0.135337
-0.131109
-0.126462
-0.12141
-0.115971
-0.110166
-0.104021
-0.0975589
-0.0908065
-0.0837882
-0.0765286
-0.0690516
-0.0613809
-0.0535398
-0.0455513
-0.0374385
-0.0292241
-0.0209307
-0.0125809
-0.0041974
0.004312
0.0129248
0.0215038
0.0300266
0.0384704
0.0468127
0.0550307
0.0631016
0.0710022
0.0787091
0.0861987
0.0934465
0.100427
0.107116
0.113485
0.119508
0.125157
0.13041
0.13525
0.139671
0.143681
0.1473
0.150558
0.1535
0.156263
0.149487
0.136549
0.125442
0.112748
0.100411
0.0888331
0.0779188
0.0676643
0.0580628
0.0491397
0.0409246
0.0334535
0.0267556
0.0208412
0.0156605
0.0111832
0.00749871
0.00446424
0.00176457
-0.000501782
-0.00152775
-0.00134696
-0.000878934
-0.000462565
-0.000141042
0.000141666
0.0004632
0.000879548
0.00134757
0.00152835
0.000502407
-0.00176396
-0.00446365
-0.00749809
-0.0111826
-0.01566
-0.0208406
-0.0267551
-0.033453
-0.040924
-0.0491392
-0.0580623
-0.0676639
-0.0779184
-0.0888327
-0.100411
-0.112748
-0.125442
-0.136548
-0.149486
-0.156263
-0.153499
-0.150557
-0.1473
-0.143681
-0.13967
-0.13525
-0.13041
-0.125157
-0.119507
-0.113485
-0.107116
-0.100427
-0.0934464
-0.0861987
-0.0787091
-0.0710022
-0.0631016
-0.0550307
-0.0468127
-0.0384704
-0.0300265
-0.0215038
-0.0129248
-0.00431201
0.00443117
0.0132823
0.0220998
0.030861
0.0395435
0.0481247
0.056582
0.0648925
0.0730332
0.0809809
0.0887117
0.0962012
0.103424
0.110353
0.116961
0.123216
0.129088
0.134547
0.139574
0.144169
0.14836
0.152205
0.155795
0.159275
0.152913
0.137263
0.123264
0.11038
0.0976254
0.085305
0.0736307
0.0626541
0.0524062
0.0429152
0.0342148
0.0263336
0.0193101
0.0131759
0.0079719
0.00353219
-0.00029176
-0.002967
-0.00476935
-0.00681634
-0.00925356
-0.00912563
-0.00639956
-0.00404025
-0.002211
-0.000702497
0.000703111
0.00221162
0.00404086
0.00640016
0.00912623
0.00925417
0.00681693
0.00476996
0.0029676
0.000292322
-0.0035316
-0.00797134
-0.0131754
-0.0193096
-0.0263331
-0.0342143
-0.0429148
-0.0524058
-0.0626537
-0.0736303
-0.0853046
-0.097625
-0.110379
-0.123264
-0.137262
-0.152913
-0.159275
-0.155794
-0.152205
-0.14836
-0.144169
-0.139574
-0.134547
-0.129088
-0.123216
-0.116961
-0.110353
-0.103424
-0.0962011
-0.0887117
-0.0809809
-0.0730333
-0.0648925
-0.056582
-0.0481247
-0.0395435
-0.030861
-0.0220997
-0.0132823
-0.00443119
0.00455456
0.0136525
0.0227168
0.031725
0.0406548
0.0494836
0.0581889
0.0667481
0.0751384
0.0833367
0.0913195
0.0990625
0.10654
0.113726
0.120589
0.127095
0.133206
0.138879
0.144081
0.148811
0.153114
0.157083
0.160849
0.154588
0.138563
0.123133
0.108646
0.0949952
0.0819067
0.0694183
0.0576213
0.046575
0.0363271
0.0269328
0.0184438
0.0108738
0.00427977
-0.00132023
-0.00563899
-0.00918222
-0.0128798
-0.0142672
-0.0137193
-0.0149665
-0.0205274
-0.0192825
-0.0110568
-0.00665255
-0.00362786
-0.00115756
0.00115817
0.00362848
0.00665315
0.0110574
0.0192831
0.020528
0.014967
0.0137198
0.0142678
0.0128804
0.0091828
0.00563953
0.00132078
-0.00427923
-0.0108733
-0.0184433
-0.0269323
-0.0363267
-0.0465746
-0.0576209
-0.0694179
-0.0819063
-0.0949949
-0.108646
-0.123133
-0.138563
-0.154588
-0.160848
-0.157083
-0.153114
-0.148811
-0.144081
-0.138879
-0.133206
-0.127095
-0.120589
-0.113726
-0.10654
-0.0990624
-0.0913194
-0.0833367
-0.0751384
-0.0667481
-0.0581889
-0.0494836
-0.0406548
-0.031725
-0.0227167
-0.0136524
-0.00455456
0.00468174
0.0140341
0.0233529
0.0326159
0.0418006
0.0508848
0.0598461
0.0686621
0.0773104
0.0857683
0.0940128
0.10202
0.109766
0.117223
0.124362
0.131145
0.137524
0.143432
0.148797
0.153603
0.157916
0.161867
0.155618
0.13937
0.12336
0.107839
0.0930043
0.0788909
0.0654598
0.0527396
0.0407863
0.0296464
0.0193652
0.0100352
0.00176119
-0.00553938
-0.0117095
-0.0170522
-0.019973
-0.0216845
-0.0277146
-0.0274395
-0.0208154
-0.0187444
-0.0185377
-0.0163571
-0.0118537
-0.00786083
-0.00447666
-0.00145356
0.00145416
0.00447727
0.00786142
0.0118543
0.0163576
0.0185383
0.018745
0.020816
0.02744
0.0277152
0.0216851
0.0199735
0.0170528
0.01171
0.0055399
-0.00176073
-0.0100347
-0.0193647
-0.0296459
-0.0407859
-0.0527392
-0.0654594
-0.0788905
-0.0930039
-0.107839
-0.12336
-0.139369
-0.155617
-0.161866
-0.157916
-0.153602
-0.148797
-0.143431
-0.137524
-0.131145
-0.124362
-0.117223
-0.109766
-0.10202
-0.0940127
-0.0857683
-0.0773104
-0.0686621
-0.059846
-0.0508848
-0.0418006
-0.0326159
-0.0233529
-0.014034
-0.00468174
0.00481238
0.014426
0.0240062
0.0335307
0.0429773
0.0523237
0.0615479
0.0706277
0.0795412
0.0882663
0.0967808
0.105062
0.113087
0.120831
0.128267
0.135362
0.14206
0.14826
0.153795
0.158594
0.162776
0.156534
0.140084
0.123649
0.107444
0.0916701
0.0764857
0.0619814
0.0482093
0.0352294
0.0230996
0.0118445
0.00145951
-0.00789146
-0.0158508
-0.0230246
-0.0284557
-0.0351258
-0.035432
-0.0297833
-0.0287574
-0.0268672
-0.0232852
-0.0205931
-0.0184601
-0.0157009
-0.0121011
-0.00843396
-0.0049492
-0.00162924
0.00162983
0.00494979
0.00843454
0.0121016
0.0157015
0.0184607
0.0205937
0.0232858
0.0268678
0.0287579
0.0297839
0.0354326
0.0351264
0.0284562
0.0230251
0.0158513
0.00789192
-0.00145906
-0.0118441
-0.0230992
-0.035229
-0.0482089
-0.061981
-0.0764854
-0.0916698
-0.107444
-0.123649
-0.140084
-0.156534
-0.162776
-0.158594
-0.153794
-0.14826
-0.14206
-0.135362
-0.128267
-0.120831
-0.113087
-0.105062
-0.0967807
-0.0882663
-0.0795412
-0.0706277
-0.0615478
-0.0523237
-0.0429772
-0.0335307
-0.0240062
-0.014426
-0.00481238
0.00494604
0.014827
0.0246746
0.0344666
0.044181
0.0537955
0.0632883
0.0726378
0.0818222
0.0908204
0.0996112
0.108173
0.116486
0.124527
0.132279
0.139723
0.146829
0.153471
0.159231
0.163893
0.157739
0.141102
0.124268
0.107469
0.0909068
0.0747574
0.0591681
0.0442534
0.0301112
0.0168423
0.00453802
-0.00680322
-0.0174337
-0.0271434
-0.0341659
-0.0421552
-0.0438553
-0.0394422
-0.0367271
-0.0331584
-0.0305687
-0.0278989
-0.024789
-0.0218159
-0.01895
-0.0158358
-0.0123775
-0.00879808
-0.00524127
-0.00173884
0.00173942
0.00524184
0.00879866
0.0123781
0.0158364
0.0189506
0.0218165
0.0247896
0.0278994
0.0305693
0.0331589
0.0367276
0.0394427
0.0438558
0.0421557
0.0341664
0.0271439
0.0174341
0.00680368
-0.00453758
-0.0168419
-0.0301108
-0.044253
-0.0591677
-0.0747571
-0.0909065
-0.107469
-0.124268
-0.141102
-0.157739
-0.163893
-0.159231
-0.153471
-0.146828
-0.139723
-0.132279
-0.124527
-0.116486
-0.108173
-0.0996111
-0.0908204
-0.0818222
-0.0726377
-0.0632883
-0.0537954
-0.0441809
-0.0344666
-0.0246746
-0.014827
-0.00494605
0.00508231
0.0152358
0.025356
0.0354207
0.0454078
0.0552952
0.0650614
0.0746848
0.0841444
0.0934198
0.102491
0.111338
0.119941
0.128283
0.136351
0.144158
0.151777
0.159266
0.16545
0.159683
0.142871
0.125595
0.108184
0.0908598
0.073802
0.0571673
0.041094
0.0257049
0.0111234
-0.00249638
-0.0149464
-0.0260968
-0.0371595
-0.0489736
-0.0513908
-0.0474346
-0.0452268
-0.0419337
-0.0387589
-0.0354494
-0.0323644
-0.0292839
-0.0260796
-0.0228648
-0.0196304
-0.016267
-0.0127378
-0.00911317
-0.0054632
-0.00181901
0.0018196
0.00546379
0.00911374
0.0127383
0.0162676
0.019631
0.0228653
0.0260802
0.0292845
0.032365
0.0354499
0.0387594
0.0419342
0.0452274
0.0474351
0.0513913
0.0489741
0.03716
0.0260972
0.0149469
0.0024968
-0.011123
-0.0257045
-0.0410936
-0.057167
-0.0738017
-0.0908595
-0.108183
-0.125594
-0.14287
-0.159682
-0.16545
-0.159266
-0.151777
-0.144158
-0.136351
-0.128283
-0.119941
-0.111338
-0.102491
-0.0934197
-0.0841444
-0.0746848
-0.0650614
-0.0552952
-0.0454077
-0.0354207
-0.025356
-0.0152358
-0.00508232
0.00522081
0.0156513
0.0260484
0.03639
0.0466539
0.0568181
0.0668611
0.0767615
0.0864988
0.0960532
0.105406
0.114539
0.123433
0.132068
0.140421
0.148502
0.156557
0.166048
0.163286
0.146194
0.128186
0.109983
0.0918145
0.0738271
0.0561565
0.0389364
0.0222928
0.00634081
-0.00880131
-0.0229494
-0.0356477
-0.0453706
-0.0560023
-0.0600424
-0.0548279
-0.0508178
-0.0475449
-0.0441791
-0.0408082
-0.0374097
-0.0340594
-0.0307062
-0.0273042
-0.0238665
-0.020383
-0.0168173
-0.0131567
-0.00942743
-0.00566375
-0.00188844
0.001889
0.00566431
0.00942798
0.0131573
0.0168178
0.0203835
0.023867
0.0273048
0.0307068
0.0340599
0.0374102
0.0408087
0.0441797
0.0475454
0.0508183
0.0548284
0.0600429
0.0560028
0.0453711
0.0356482
0.0229498
0.00880172
-0.00634041
-0.0222925
-0.038936
-0.0561562
-0.0738267
-0.0918141
-0.109983
-0.128186
-0.146194
-0.163286
-0.166048
-0.156557
-0.148502
-0.140421
-0.132068
-0.123433
-0.114539
-0.105406
-0.0960532
-0.0864987
-0.0767615
-0.0668611
-0.0568181
-0.0466538
-0.0363899
-0.0260483
-0.0156512
-0.00522081
0.00536108
0.0160721
0.0267497
0.0373716
0.0479156
0.0583596
0.0686818
0.0788609
0.0888766
0.0987098
0.108343
0.117762
0.126949
0.13588
0.144489
0.152577
0.159587
0.164742
0.155119
0.133329
0.113447
0.0941313
0.0751019
0.056357
0.037981
0.0200888
0.00279815
-0.013799
-0.0296515
-0.0447519
-0.0591957
-0.0635861
-0.0612634
-0.0601854
-0.0568971
-0.0533135
-0.0498165
-0.0463016
-0.0427676
-0.0392149
-0.0356606
-0.0320909
-0.028488
-0.0248475
-0.0211612
-0.0174159
-0.0136082
-0.00975022
-0.00586038
-0.00195479
0.00195534
0.00586094
0.00975074
0.0136087
0.0174165
0.0211618
0.0248481
0.0284886
0.0320915
0.0356612
0.0392154
0.0427681
0.0463021
0.0498171
0.053314
0.0568976
0.0601859
0.0612639
0.0635865
0.0591962
0.0447523
0.029652
0.0137994
-0.00279779
-0.0200885
-0.0379806
-0.0563566
-0.0751015
-0.094131
-0.113447
-0.133329
-0.155118
-0.164742
-0.159586
-0.152577
-0.144489
-0.13588
-0.126949
-0.117762
-0.108343
-0.0987098
-0.0888765
-0.0788608
-0.0686817
-0.0583595
-0.0479155
-0.0373716
-0.0267497
-0.0160721
-0.00536108
0.00550278
0.0164972
0.027458
0.0383629
0.0491895
0.0599154
0.0705183
0.0809767
0.0912699
0.101379
0.111289
0.120989
0.130474
0.139745
0.14879
0.157423
0.164143
0.157873
0.138798
0.118292
0.0979259
0.0778222
0.0579783
0.0384353
0.0192813
0.00064059
-0.0173496
-0.0346051
-0.0511395
-0.067062
-0.0726153
-0.0683249
-0.0651
-0.0623648
-0.0590992
-0.0555717
-0.0519666
-0.0483144
-0.0446279
-0.0409144
-0.0371804
-0.0334223
-0.0296331
-0.0258081
-0.0219422
-0.0180308
-0.014074
-0.0100791
-0.00605742
-0.00202055
0.00202111
0.00605796
0.0100796
0.0140746
0.0180314
0.0219428
0.0258086
0.0296336
0.0334229
0.037181
0.040915
0.0446284
0.0483149
0.0519672
0.0555722
0.0590997
0.0623653
0.0651005
0.0683254
0.0726158
0.0670624
0.05114
0.0346055
0.01735
-0.000640219
-0.0192809
-0.0384349
-0.057978
-0.0778219
-0.0979256
-0.118292
-0.138798
-0.157873
-0.164143
-0.157422
-0.14879
-0.139745
-0.130474
-0.120989
-0.111289
-0.101379
-0.0912699
-0.0809767
-0.0705183
-0.0599153
-0.0491895
-0.0383629
-0.027458
-0.0164972
-0.00550279
0.0056455
0.0169253
0.0281714
0.0393614
0.0504725
0.0614818
0.0723666
0.0831042
0.0936729
0.104053
0.114229
0.124193
0.133953
0.143557
0.153199
0.163855
0.161346
0.143481
0.123628
0.102882
0.0819586
0.0611175
0.0404644
0.0200804
6.83767e-05
-0.019415
-0.0381477
-0.0560082
-0.0730774
-0.0795423
-0.0756694
-0.0718038
-0.0682637
-0.0649016
-0.0614007
-0.0577565
-0.0540241
-0.0502326
-0.0463973
-0.0425272
-0.0386274
-0.0346983
-0.0307377
-0.0267432
-0.0227128
-0.0186452
-0.0145423
-0.0104093
-0.00625428
-0.00208603
0.00208656
0.00625483
0.0104099
0.0145428
0.0186458
0.0227133
0.0267438
0.0307382
0.0346988
0.0386279
0.0425277
0.0463978
0.0502331
0.0540247
0.057757
0.0614012
0.0649021
0.0682642
0.0718043
0.0756698
0.0795428
0.0730778
0.0560086
0.0381481
0.0194154
-6.80167e-05
-0.0200801
-0.0404641
-0.0611172
-0.0819583
-0.102882
-0.123628
-0.14348