/*--------------------------------*- C++ -*----------------------------------*\
  =========                 |
  \\      /  F ield         | OpenFOAM: The Open Source CFD Toolbox
   \\    /   O peration     | Website:  https://openfoam.org
    \\  /    A nd           | Version:  7
     \\/     M anipulation  |
\*---------------------------------------------------------------------------*/
FoamFile
{
    version     2.0;
    format      ascii;
    class       volScalarField;
    location    "0.03";
    object      gradTy;
}
// * * * * * * * * * * * * * * * * * * * * * * * * * * * * * * * * * * * * * //

dimensions      [0 -1 0 1 0 0 0];

internalField   nonuniform List<scalar> 
10000
(
0.00316504
0.0031722
0.00318627
0.00320729
0.00323526
0.00327021
0.00331204
0.00336072
0.00341614
0.00347822
0.00354686
0.00362191
0.00370325
0.00379071
0.00388409
0.00398315
0.00408769
0.00419741
0.004312
0.00443117
0.00455454
0.00468175
0.0048124
0.00494606
0.00508231
0.00522078
0.00536108
0.00550277
0.00564549
0.00578881
0.0059323
0.00607546
0.00621769
0.00635833
0.00649651
0.00663137
0.00676193
0.0068873
0.00700662
0.00711929
0.00722485
0.00732296
0.00741326
0.00749509
0.00756733
0.00762879
0.00767836
0.00771553
0.00774017
0.00775238
0.00775239
0.00774014
0.00771552
0.00767835
0.00762877
0.00756733
0.00749509
0.00741329
0.00732298
0.00722484
0.00711931
0.00700664
0.0068873
0.00676195
0.00663139
0.00649651
0.00635833
0.0062177
0.00607545
0.00593231
0.00578881
0.00564551
0.0055028
0.00536108
0.00522079
0.00508234
0.00494605
0.0048124
0.00468176
0.00455456
0.00443119
0.00431201
0.0041974
0.00408768
0.00398314
0.00388408
0.00379072
0.00370327
0.0036219
0.00354686
0.00347821
0.00341613
0.0033607
0.00331204
0.00327021
0.00323525
0.00320726
0.00318624
0.00317224
0.00316517
0.00948449
0.00950572
0.0095479
0.00961101
0.00969501
0.00979985
0.00992533
0.0100713
0.0102375
0.0104237
0.0106295
0.0108546
0.0110986
0.0113609
0.011641
0.0119382
0.0122518
0.012581
0.0129248
0.0132823
0.0136524
0.0140341
0.014426
0.014827
0.0152358
0.0156513
0.0160721
0.0164972
0.0169253
0.0173552
0.0177858
0.0182154
0.0186423
0.0190646
0.0194796
0.0198847
0.020277
0.0206534
0.0210117
0.0213498
0.0216664
0.0219608
0.0222321
0.0224784
0.0226961
0.0228813
0.0230305
0.0231419
0.0232156
0.0232521
0.0232521
0.0232156
0.0231419
0.0230304
0.0228813
0.0226961
0.0224784
0.0222322
0.0219608
0.0216664
0.0213498
0.0210117
0.0206535
0.020277
0.0198848
0.0194797
0.0190646
0.0186424
0.0182154
0.0177858
0.0173552
0.0169253
0.0164972
0.0160721
0.0156513
0.0152358
0.014827
0.014426
0.0140341
0.0136525
0.0132823
0.0129248
0.012581
0.0122518
0.0119382
0.011641
0.0113609
0.0110986
0.0108546
0.0106295
0.0104237
0.0102375
0.0100712
0.00992527
0.00979977
0.00969493
0.00961091
0.00954783
0.00950581
0.00948471
0.0157721
0.0158072
0.0158774
0.0159825
0.0161225
0.0162971
0.0165061
0.0167492
0.017026
0.0173361
0.017679
0.018054
0.0184604
0.0188975
0.0193642
0.0198595
0.0203821
0.0209307
0.0215038
0.0220998
0.0227168
0.0233529
0.0240062
0.0246746
0.025356
0.0260484
0.0267497
0.027458
0.0281714
0.028888
0.0296057
0.0303222
0.0310346
0.0317396
0.032433
0.03311
0.0337654
0.0343944
0.0349923
0.0355559
0.0360834
0.0365741
0.0370275
0.0374407
0.0378073
0.038119
0.0383691
0.0385547
0.0386764
0.0387364
0.0387364
0.0386764
0.0385546
0.038369
0.038119
0.0378073
0.0374407
0.0370275
0.0365741
0.0360834
0.0355559
0.0349923
0.0343944
0.0337654
0.03311
0.032433
0.0317396
0.0310346
0.0303222
0.0296057
0.028888
0.0281714
0.027458
0.0267497
0.0260484
0.025356
0.0246746
0.0240062
0.0233529
0.0227167
0.0220998
0.0215038
0.0209307
0.0203821
0.0198594
0.0193642
0.0188975
0.0184604
0.018054
0.017679
0.0173361
0.017026
0.0167491
0.016506
0.016297
0.0161224
0.0159825
0.0158773
0.0158072
0.0157722
0.0220066
0.0220556
0.0221537
0.0223007
0.0224964
0.0227405
0.0230328
0.0233727
0.0237599
0.0241936
0.0246733
0.0251979
0.0257666
0.0263782
0.0270313
0.0277245
0.0284561
0.0292241
0.0300266
0.030861
0.031725
0.0326159
0.0335307
0.0344666
0.0354207
0.03639
0.0373716
0.0383629
0.0393614
0.0403644
0.0413694
0.0423733
0.0433725
0.0443622
0.0453364
0.0462882
0.0472099
0.0480937
0.0489328
0.049722
0.050459
0.051145
0.0517819
0.0523672
0.0528898
0.0533337
0.0536866
0.0539451
0.0541123
0.054194
0.054194
0.0541123
0.0539451
0.0536866
0.0533336
0.0528898
0.0523672
0.0517819
0.051145
0.050459
0.049722
0.0489328
0.0480937
0.0472099
0.0462883
0.0453365
0.0443622
0.0433725
0.0423733
0.0413694
0.0403644
0.0393614
0.0383629
0.0373716
0.03639
0.0354207
0.0344666
0.0335307
0.0326159
0.031725
0.030861
0.0300265
0.0292241
0.0284561
0.0277245
0.0270313
0.0263781
0.0257666
0.0251979
0.0246733
0.0241936
0.0237598
0.0233727
0.0230327
0.0227405
0.0224963
0.0223007
0.0221536
0.0220555
0.0220065
0.0281665
0.0282295
0.0283554
0.028544
0.0287952
0.0291086
0.0294837
0.0299202
0.0304173
0.0309743
0.0315903
0.0322641
0.0329947
0.0337804
0.0346197
0.0355107
0.0364511
0.0374385
0.0384704
0.0395436
0.0406548
0.0418006
0.0429772
0.044181
0.0454078
0.0466539
0.0479156
0.0491895
0.0504725
0.0517615
0.0530536
0.0543456
0.0556331
0.0569102
0.0581693
0.0594006
0.0605932
0.0617358
0.0628185
0.063833
0.064776
0.065653
0.066474
0.0672404
0.0679335
0.0685202
0.0689784
0.0693056
0.0695122
0.0696113
0.0696113
0.0695122
0.0693056
0.0689784
0.0685202
0.0679335
0.0672404
0.066474
0.065653
0.064776
0.063833
0.0628185
0.0617358
0.0605932
0.0594007
0.0581693
0.0569102
0.0556331
0.0543456
0.0530537
0.0517615
0.0504725
0.0491895
0.0479156
0.0466538
0.0454077
0.0441809
0.0429772
0.0418006
0.0406548
0.0395435
0.0384704
0.0374385
0.0364511
0.0355106
0.0346197
0.0337804
0.0329946
0.0322641
0.0315902
0.0309743
0.0304173
0.0299202
0.0294837
0.0291085
0.0287951
0.028544
0.0283553
0.0282294
0.0281665
0.0342311
0.0343079
0.0344614
0.0346914
0.0349978
0.03538
0.0358376
0.0363701
0.0369766
0.0376563
0.038408
0.0392305
0.0401224
0.0410819
0.042107
0.0431954
0.0443445
0.0455514
0.0468127
0.0481247
0.0494836
0.0508848
0.0523237
0.0537955
0.0552952
0.0568181
0.0583596
0.0599154
0.0614818
0.0630558
0.0646345
0.0662147
0.0677922
0.0693605
0.0709101
0.072428
0.0738987
0.0753065
0.0766373
0.0778773
0.0790176
0.0800728
0.0810738
0.0820372
0.0829319
0.0836814
0.0842458
0.0846304
0.0848626
0.0849703
0.0849703
0.0848626
0.0846304
0.0842458
0.0836814
0.0829319
0.0820372
0.0810738
0.0800728
0.0790176
0.0778773
0.0766373
0.0753065
0.0738987
0.072428
0.0709101
0.0693605
0.0677922
0.0662147
0.0646345
0.0630558
0.0614818
0.0599154
0.0583596
0.0568181
0.0552952
0.0537955
0.0523237
0.0508848
0.0494836
0.0481247
0.0468127
0.0455513
0.0443445
0.0431954
0.042107
0.0410819
0.0401224
0.0392305
0.0384079
0.0376562
0.0369765
0.03637
0.0358376
0.0353799
0.0349977
0.0346914
0.0344613
0.0343078
0.034231
0.0401793
0.0402698
0.0404507
0.0407219
0.041083
0.0415335
0.042073
0.0427008
0.0434161
0.0442177
0.0451045
0.046075
0.0471276
0.0482602
0.0494705
0.050756
0.0521136
0.0535397
0.0550307
0.056582
0.0581889
0.0598461
0.0615479
0.0632884
0.0650614
0.0668611
0.0686818
0.0705183
0.0723666
0.0742235
0.0760868
0.0779545
0.0798234
0.0816875
0.0835356
0.0853506
0.0871106
0.0887929
0.0903814
0.0918515
0.0931706
0.0943698
0.0955307
0.0967189
0.097889
0.0988387
0.0995022
0.0999156
0.100144
0.100244
0.100244
0.100144
0.0999156
0.0995022
0.0988387
0.097889
0.0967189
0.0955307
0.0943698
0.0931706
0.0918515
0.0903814
0.0887929
0.0871106
0.0853506
0.0835357
0.0816875
0.0798234
0.0779545
0.0760868
0.0742235
0.0723666
0.0705183
0.0686817
0.0668611
0.0650614
0.0632883
0.0615478
0.059846
0.0581889
0.056582
0.0550307
0.0535397
0.0521135
0.050756
0.0494705
0.0482601
0.0471275
0.0460749
0.0451044
0.0442176
0.043416
0.0427007
0.042073
0.0415335
0.0410829
0.0407218
0.0404507
0.0402697
0.0401792
0.0459906
0.0460947
0.0463027
0.0466146
0.0470298
0.0475481
0.0481688
0.0488911
0.0497142
0.0506368
0.0516578
0.0527754
0.0539878
0.0552928
0.0566878
0.0581698
0.0597355
0.0613809
0.0631015
0.0648925
0.0667481
0.0686621
0.0706277
0.0726378
0.0746848
0.0767615
0.0788609
0.0809767
0.0831042
0.0852404
0.0873844
0.0895367
0.0916973
0.0938621
0.0960201
0.098148
0.100214
0.102181
0.104047
0.105775
0.107237
0.108495
0.109746
0.111201
0.112844
0.114057
0.114781
0.115157
0.115326
0.115386
0.115386
0.115326
0.115156
0.114781
0.114057
0.112844
0.111201
0.109746
0.108495
0.107237
0.105775
0.104047
0.102181
0.100214
0.098148
0.0960201
0.0938621
0.0916972
0.0895367
0.0873844
0.0852403
0.0831042
0.0809767
0.0788608
0.0767615
0.0746848
0.0726377
0.0706277
0.0686621
0.0667481
0.0648925
0.0631015
0.0613808
0.0597354
0.0581698
0.0566877
0.0552927
0.0539878
0.0527754
0.0516578
0.0506368
0.0497141
0.0488911
0.0481687
0.0475481
0.0470298
0.0466145
0.0463027
0.0460946
0.0459905
0.0516444
0.0517619
0.0519968
0.0523489
0.0528177
0.0534029
0.0541039
0.0549198
0.0558496
0.0568922
0.0580462
0.0593097
0.0606809
0.0621572
0.063736
0.0654138
0.0671872
0.0690516
0.0710022
0.0730332
0.0751384
0.0773104
0.0795412
0.0818222
0.0841444
0.0864988
0.0888766
0.0912699
0.0936729
0.0960824
0.0984998
0.10093
0.103379
0.105849
0.108333
0.110798
0.113201
0.115449
0.117622
0.11973
0.121269
0.122381
0.12351
0.12524
0.127973
0.129501
0.130145
0.130337
0.130348
0.130323
0.130323
0.130348
0.130337
0.130145
0.129501
0.127973
0.12524
0.12351
0.122381
0.121269
0.11973
0.117622
0.115449
0.113201
0.110798
0.108333
0.105849
0.103379
0.10093
0.0984998
0.0960823
0.0936728
0.0912699
0.0888765
0.0864987
0.0841444
0.0818222
0.0795412
0.0773104
0.0751384
0.0730332
0.0710021
0.0690516
0.0671871
0.0654138
0.0637359
0.0621572
0.0606809
0.0593098
0.0580462
0.0568922
0.0558496
0.0549198
0.0541039
0.0534029
0.0528177
0.0523488
0.0519968
0.0517619
0.0516444
0.0571207
0.0572515
0.0575128
0.0579044
0.0584262
0.0590774
0.0598576
0.0607658
0.0618012
0.0629624
0.064248
0.0656561
0.0671846
0.0688311
0.0705924
0.0724652
0.0744455
0.0765286
0.0787091
0.0809809
0.0833367
0.0857683
0.0882663
0.0908204
0.0934198
0.0960532
0.0987098
0.101379
0.104053
0.106727
0.109405
0.112099
0.114826
0.1176
0.120433
0.123273
0.126097
0.128538
0.131002
0.133985
0.135455
0.135974
0.13639
0.137987
0.144011
0.145528
0.145658
0.145394
0.145102
0.144928
0.144928
0.145102
0.145394
0.145658
0.145528
0.144011
0.137987
0.13639
0.135974
0.135455
0.133985
0.131001
0.128538
0.126097
0.123273
0.120433
0.1176
0.114826
0.112099
0.109405
0.106727
0.104053
0.101379
0.0987098
0.0960531
0.0934197
0.0908204
0.0882663
0.0857683
0.0833367
0.0809809
0.0787091
0.0765286
0.0744455
0.0724652
0.0705924
0.0688311
0.0671846
0.0656561
0.064248
0.0629624
0.0618012
0.0607658
0.0598575
0.0590774
0.0584261
0.0579044
0.0575127
0.0572514
0.0571207
0.0623998
0.0625435
0.0628307
0.0632613
0.063835
0.0645512
0.0654093
0.0664085
0.0675478
0.0688261
0.0702416
0.0717926
0.0734769
0.0752918
0.0772343
0.0793008
0.0814871
0.0837882
0.0861987
0.0887117
0.0913195
0.0940128
0.0967807
0.0996112
0.102491
0.105406
0.108343
0.111289
0.114229
0.117154
0.120073
0.123003
0.125988
0.129042
0.132271
0.135495
0.1391
0.141319
0.143567
0.149448
0.150284
0.149357
0.147774
0.145986
0.144218
0.142599
0.141219
0.140137
0.139394
0.139016
0.139016
0.139394
0.140137
0.141219
0.142599
0.144218
0.145986
0.147774
0.149356
0.150284
0.149448
0.143567
0.141319
0.1391
0.135495
0.13227
0.129042
0.125988
0.123003
0.120073
0.117154
0.114229
0.111289
0.108343
0.105406
0.102491
0.0996111
0.0967807
0.0940127
0.0913194
0.0887117
0.0861987
0.0837882
0.0814871
0.0793008
0.0772343
0.0752918
0.0734769
0.0717926
0.0702416
0.0688261
0.0675479
0.0664085
0.0654093
0.0645512
0.063835
0.0632613
0.0628307
0.0625434
0.0623998
0.0674621
0.0676185
0.0679312
0.0684
0.0690245
0.0698044
0.0707389
0.0718275
0.073069
0.0744622
0.0760056
0.0776975
0.0795355
0.081517
0.0836388
0.0858974
0.0882882
0.0908065
0.0934464
0.0962011
0.0990624
0.10202
0.105062
0.108173
0.111338
0.114539
0.117762
0.120989
0.124193
0.127352
0.130484
0.133597
0.136817
0.140032
0.143826
0.147038
0.15318
0.153754
0.152175
0.149615
0.146526
0.143047
0.139018
0.133625
0.123934
0.119096
0.116148
0.114207
0.11299
0.112397
0.112397
0.11299
0.114207
0.116148
0.119096
0.123934
0.133625
0.139018
0.143047
0.146526
0.149615
0.152175
0.153753
0.15318
0.147038
0.143825
0.140032
0.136817
0.133597
0.130484
0.127352
0.124193
0.120989
0.117762
0.114539
0.111338
0.108173
0.105062
0.10202
0.0990624
0.0962012
0.0934464
0.0908065
0.0882882
0.0858973
0.0836388
0.081517
0.0795355
0.0776975
0.0760057
0.0744622
0.073069
0.0718275
0.070739
0.0698044
0.0690245
0.0684
0.0679312
0.0676185
0.0674621
0.0722888
0.0724576
0.0727951
0.0733011
0.0739753
0.0748174
0.0758267
0.0770026
0.0783441
0.07985
0.081519
0.0833493
0.0853386
0.0874842
0.0897831
0.0922315
0.0948251
0.0975589
0.100427
0.103424
0.10654
0.109766
0.113087
0.116486
0.119941
0.123433
0.126949
0.130474
0.133953
0.137317
0.140646
0.143803
0.147359
0.150143
0.155646
0.155325
0.152482
0.14799
0.141414
0.129964
0.122821
0.116955
0.111301
0.105248
0.0985085
0.0934252
0.0897968
0.0872872
0.0856949
0.0849191
0.084919
0.0856949
0.0872872
0.0897968
0.0934252
0.0985085
0.105248
0.111301
0.116955
0.122821
0.129964
0.141414
0.14799
0.152482
0.155325
0.155646
0.150143
0.147359
0.143803
0.140646
0.137317
0.133953
0.130474
0.126949
0.123433
0.119941
0.116486
0.113087
0.109766
0.10654
0.103424
0.100427
0.097559
0.0948251
0.0922315
0.0897831
0.0874842
0.0853386
0.0833493
0.0815191
0.0798501
0.0783441
0.0770026
0.0758267
0.0748174
0.0739753
0.0733011
0.0727951
0.0724576
0.0722888
0.0768615
0.0770423
0.0774039
0.0779461
0.0786686
0.0795711
0.0806532
0.0819141
0.0833531
0.0849692
0.0867609
0.0887266
0.0908642
0.0931712
0.0956443
0.0982798
0.101073
0.104021
0.107116
0.110353
0.113726
0.117223
0.120831
0.124527
0.128283
0.132068
0.13588
0.139745
0.143557
0.147035
0.150685
0.153306
0.158354
0.157205
0.152944
0.145784
0.13309
0.123975
0.115204
0.105712
0.0975563
0.0903815
0.0837268
0.0773147
0.0711984
0.0660827
0.062118
0.0592467
0.0573838
0.0564676
0.0564676
0.0573838
0.0592467
0.062118
0.0660827
0.0711983
0.0773147
0.0837268
0.0903815
0.0975563
0.105712
0.115204
0.123975
0.13309
0.145784
0.152944
0.157205
0.158353
0.153306
0.150685
0.147035
0.143557
0.139745
0.13588
0.132068
0.128283
0.124527
0.120831
0.117223
0.113726
0.110353
0.107116
0.104021
0.101073
0.0982798
0.0956443
0.0931712
0.0908643
0.0887267
0.086761
0.0849692
0.0833532
0.0819141
0.0806532
0.0795712
0.0786687
0.0779461
0.0774039
0.0770423
0.0768615
0.0811624
0.0813548
0.0817397
0.0823168
0.083086
0.084047
0.0851995
0.0865429
0.0880765
0.0897995
0.0917107
0.0938085
0.096091
0.0985557
0.1012
0.104019
0.107009
0.110166
0.113485
0.116961
0.120589
0.124362
0.128267
0.132279
0.136351
0.140421
0.144489
0.14879
0.153199
0.156276
0.161434
0.160051
0.155198
0.147032
0.132802
0.121451
0.109821
0.0993383
0.0894585
0.0798846
0.0710915
0.0630838
0.05572
0.0489097
0.0427252
0.0374379
0.0332036
0.0300614
0.0279937
0.0269698
0.0269698
0.0279937
0.0300614
0.0332036
0.0374379
0.0427251
0.0489097
0.05572
0.0630838
0.0710915
0.0798846
0.0894584
0.0993382
0.109821
0.12145
0.132802
0.147032
0.155198
0.160051
0.161434
0.156276
0.153199
0.14879
0.144489
0.140421
0.136351
0.132279
0.128267
0.124362
0.120589
0.116961
0.113485
0.110166
0.107009
0.104019
0.1012
0.0985558
0.0960911
0.0938085
0.0917107
0.0897996
0.0880766
0.0865429
0.0851996
0.0840471
0.0830861
0.0823169
0.0817397
0.0813548
0.0811624
0.0851743
0.0853779
0.0857851
0.0863958
0.0872099
0.0882271
0.0894473
0.0908702
0.092495
0.0943214
0.0963481
0.0985741
0.100998
0.103616
0.106427
0.109426
0.112609
0.115971
0.119508
0.123216
0.127095
0.131145
0.135362
0.139723
0.144158
0.148502
0.152577
0.157423
0.163855
0.163106
0.158377
0.14992
0.135015
0.122599
0.109492
0.0971291
0.0851647
0.0738813
0.0632105
0.0531013
0.0436851
0.0350033
0.0270367
0.0197705
0.0132598
0.00765699
0.00312296
-0.000265502
-0.00250298
-0.00361224
-0.00361226
-0.00250298
-0.000265534
0.00312294
0.00765697
0.0132598
0.0197704
0.0270366
0.0350032
0.0436851
0.0531013
0.0632105
0.0738812
0.0851647
0.097129
0.109492
0.122599
0.135015
0.149919
0.158377
0.163106
0.163855
0.157423
0.152577
0.148502
0.144158
0.139723
0.135362
0.131145
0.127095
0.123216
0.119508
0.115971
0.112609
0.109426
0.106427
0.103616
0.100998
0.0985742
0.0963482
0.0943214
0.0924951
0.0908702
0.0894474
0.0882272
0.0872099
0.0863958
0.0857851
0.0853779
0.0851743
0.0888808
0.089095
0.0895235
0.0901663
0.0910232
0.0920942
0.0933791
0.0948779
0.0965902
0.0985156
0.100654
0.103003
0.105563
0.108331
0.111304
0.114478
0.117849
0.12141
0.125157
0.129088
0.133206
0.137524
0.14206
0.146829
0.151777
0.156557
0.159587
0.164143
0.161346
0.153566
0.138709
0.12591
0.112054
0.0985954
0.0852023
0.0722023
0.0596467
0.0476552
0.0362676
0.0255135
0.0154532
0.00613495
-0.00240249
-0.0101638
-0.0171386
-0.0232059
-0.0281064
-0.0317393
-0.0341188
-0.0352922
-0.0352922
-0.0341188
-0.0317393
-0.0281065
-0.0232059
-0.0171386
-0.0101638
-0.00240255
0.00613489
0.0154531
0.0255134
0.0362675
0.0476551
0.0596466
0.0722022
0.0852023
0.0985953
0.112054
0.12591
0.138709
0.153566
0.161346
0.164143
0.159587
0.156557
0.151777
0.146829
0.14206
0.137524
0.133206
0.129088
0.125157
0.12141
0.117849
0.114478
0.111304
0.108331
0.105563
0.103003
0.100654
0.0985157
0.0965903
0.094878
0.0933792
0.0920942
0.0910232
0.0901663
0.0895236
0.0890951
0.0888808
0.0922663
0.0924906
0.0929393
0.0936124
0.0945098
0.0956317
0.096978
0.0985488
0.100344
0.102364
0.104608
0.107075
0.109766
0.112678
0.115808
0.119153
0.122707
0.126462
0.13041
0.134547
0.138879
0.143432
0.14826
0.153471
0.159266
0.166048
0.164742
0.157873
0.143481
0.130778
0.116691
0.102694
0.0884597
0.0743213
0.0603442
0.0466836
0.0334444
0.0207308
0.00862158
-0.00281468
-0.0135456
-0.0235187
-0.0326039
-0.0408539
-0.0483985
-0.0551763
-0.0605335
-0.0643883
-0.0668575
-0.0680598
-0.0680598
-0.0668575
-0.0643883
-0.0605335
-0.0551764
-0.0483985
-0.0408539
-0.032604
-0.0235188
-0.0135457
-0.00281476
0.0086215
0.0207307
0.0334443
0.0466835
0.0603441
0.0743213
0.0884596
0.102693
0.116691
0.130778
0.143481
0.157873
0.164742
0.166048
0.159266
0.153471
0.14826
0.143432
0.138879
0.134547
0.13041
0.126462
0.122707
0.119153
0.115808
0.112678
0.109766
0.107075
0.104608
0.102364
0.100344
0.0985489
0.0969781
0.0956317
0.0945099
0.0936124
0.0929394
0.0924907
0.0922664
0.0953162
0.0955499
0.0960175
0.096719
0.0976544
0.098824
0.100228
0.101866
0.103739
0.105848
0.108192
0.110771
0.113586
0.116636
0.119919
0.123431
0.127164
0.131109
0.13525
0.139574
0.144081
0.148797
0.153795
0.159231
0.16545
0.163286
0.155119
0.138798
0.123628
0.109104
0.0943437
0.0795053
0.0645926
0.0497392
0.0350531
0.0206565
0.00665803
-0.00682884
-0.0197021
-0.0318281
-0.043259
-0.0539954
-0.0635558
-0.0721466
-0.0803058
-0.088433
-0.0943166
-0.0982683
-0.100703
-0.101867
-0.101867
-0.100703
-0.0982683
-0.0943166
-0.0884331
-0.0803059
-0.0721467
-0.0635558
-0.0539954
-0.0432591
-0.0318281
-0.0197021
-0.00682894
0.00665796
0.0206564
0.035053
0.0497392
0.0645926
0.0795052
0.0943436
0.109104
0.123628
0.138798
0.155118
0.163286
0.16545
0.159231
0.153795
0.148797
0.144081
0.139574
0.13525
0.131109
0.127164
0.123431
0.119919
0.116636
0.113586
0.110771
0.108192
0.105848
0.10374
0.101866
0.100228
0.0988241
0.0976545
0.0967191
0.0960176
0.09555
0.0953162
0.0980166
0.0982591
0.0987443
0.0994721
0.100443
0.101656
0.103114
0.104815
0.10676
0.108951
0.111388
0.114072
0.117004
0.120184
0.123614
0.127288
0.131201
0.135337
0.139671
0.144169
0.148811
0.153602
0.158594
0.163893
0.159682
0.146194
0.133329
0.118292
0.102882
0.0874503
0.0718893
0.0562385
0.0405455
0.0249013
0.00941547
-0.00579459
-0.0206353
-0.0349683
-0.0487111
-0.0614485
-0.0735539
-0.0855115
-0.0953198
-0.103695
-0.112051
-0.123721
-0.129806
-0.13343
-0.135579
-0.136596
-0.136596
-0.135579
-0.13343
-0.129806
-0.123721
-0.112051
-0.103695
-0.0953199
-0.0855115
-0.073554
-0.0614485
-0.0487112
-0.0349684
-0.0206353
-0.00579466
0.00941541
0.0249013
0.0405454
0.0562384
0.0718893
0.0874502
0.102882
0.118292
0.133329
0.146194
0.159682
0.163893
0.158594
0.153602
0.148811
0.144169
0.139671
0.135337
0.131201
0.127288
0.123614
0.120185
0.117004
0.114072
0.111388
0.108951
0.10676
0.104815
0.103114
0.101657
0.100443
0.0994722
0.0987444
0.0982593
0.0980167
0.100355
0.100606
0.101107
0.101859
0.102862
0.104116
0.105622
0.10738
0.109391
0.111657
0.114179
0.116958
0.119998
0.1233
0.126867
0.130701
0.134796
0.139137
0.143681
0.14836
0.153114
0.157916
0.162776
0.157739
0.142871
0.128186
0.113447
0.0979258
0.0819586
0.0657602
0.0493932
0.0329158
0.0163854
-0.00012517
-0.0164946
-0.0325787
-0.0483676
-0.0635983
-0.0785958
-0.0915432
-0.103812
-0.118966
-0.128285
-0.135012
-0.140213
-0.144296
-0.147444
-0.14975
-0.151265
-0.152016
-0.152016
-0.151265
-0.14975
-0.147444
-0.144296
-0.140213
-0.135012
-0.128285
-0.118966
-0.103813
-0.0915433
-0.0785958
-0.0635984
-0.0483677
-0.0325788
-0.0164947
-0.000125266
0.0163853
0.0329158
0.0493931
0.0657602
0.0819586
0.0979258
0.113447
0.128186
0.142871
0.157739
0.162776
0.157916
0.153114
0.14836
0.143681
0.139137
0.134796
0.130701
0.126867
0.1233
0.119998
0.116958
0.114179
0.111657
0.109391
0.10738
0.105622
0.104116
0.102862
0.101859
0.101107
0.100606
0.100355
0.10232
0.102577
0.103093
0.103867
0.104899
0.106189
0.107739
0.109548
0.111619
0.113951
0.116548
0.119412
0.122548
0.125959
0.129653
0.133638
0.13792
0.142492
0.1473
0.152205
0.157083
0.161867
0.156534
0.141102
0.125595
0.109983
0.0941313
0.0778222
0.0611175
0.0441248
0.0269286
0.00960316
-0.00780186
-0.0252644
-0.0426261
-0.0595591
-0.0765245
-0.0922945
-0.11033
-0.122088
-0.130931
-0.137965
-0.143531
-0.147531
-0.149158
-0.145464
-0.145576
-0.146508
-0.147358
-0.147829
-0.147829
-0.147358
-0.146508
-0.145576
-0.145464
-0.149158
-0.147531
-0.143531
-0.137965
-0.130931
-0.122088
-0.11033
-0.0922946
-0.0765246
-0.0595592
-0.0426262
-0.0252645
-0.00780196
0.00960309
0.0269285
0.0441248
0.0611175
0.0778222
0.0941313
0.109983
0.125595
0.141102
0.156534
0.161867
0.157083
0.152205
0.1473
0.142492
0.13792
0.133638
0.129653
0.125959
0.122548
0.119413
0.116548
0.113951
0.111619
0.109548
0.107739
0.10619
0.104899
0.103867
0.103093
0.102578
0.10232
0.1039
0.104165
0.104693
0.105486
0.106544
0.107867
0.109455
0.111309
0.11343
0.115821
0.118482
0.121419
0.124636
0.128139
0.13194
0.136056
0.140518
0.145361
0.150558
0.155795
0.160849
0.155618
0.140084
0.124268
0.108184
0.0918145
0.0751019
0.0579783
0.0404644
0.0226297
0.0045671
-0.0136186
-0.0318825
-0.0504175
-0.0690611
-0.0863445
-0.105677
-0.11849
-0.128067
-0.135244
-0.139541
-0.138099
-0.14
-0.142072
-0.143072
-0.142485
-0.14255
-0.143008
-0.143488
-0.143773
-0.143773
-0.143488
-0.143008
-0.14255
-0.142485
-0.143072
-0.142072
-0.14
-0.138099
-0.139541
-0.135245
-0.128067
-0.11849
-0.105677
-0.0863447
-0.0690612
-0.0504176
-0.0318826
-0.0136187
0.00456702
0.0226296
0.0404644
0.0579783
0.0751018
0.0918145
0.108184
0.124268
0.140084
0.155618
0.160849
0.155795
0.150558
0.145361
0.140518
0.136056
0.13194
0.128139
0.124636
0.121419
0.118483
0.115821
0.11343
0.111309
0.109455
0.107867
0.106544
0.105486
0.104693
0.104165
0.1039
0.105088
0.105358
0.105898
0.106707
0.107788
0.109138
0.110759
0.112651
0.114816
0.117255
0.11997
0.122965
0.126245
0.129819
0.133697
0.137902
0.142493
0.147619
0.1535
0.159275
0.154588
0.13937
0.123649
0.107469
0.0908598
0.073827
0.056357
0.0384353
0.0200804
0.00134929
-0.0176454
-0.0366967
-0.0555866
-0.0753158
-0.0966688
-0.110856
-0.121079
-0.127627
-0.127887
-0.130954
-0.133553
-0.134561
-0.135969
-0.137355
-0.138241
-0.138526
-0.138807
-0.139162
-0.139486
-0.139676
-0.139676
-0.139486
-0.139162
-0.138807
-0.138526
-0.138241
-0.137355
-0.13597
-0.134561
-0.133553
-0.130954
-0.127887
-0.127627
-0.121079
-0.110856
-0.0966689
-0.0753159
-0.0555867
-0.0366968
-0.0176454
0.00134925
0.0200804
0.0384352
0.0563569
0.073827
0.0908598
0.107469
0.123649
0.13937
0.154588
0.159275
0.1535
0.147619
0.142494
0.137902
0.133697
0.129819
0.126245
0.122965
0.11997
0.117255
0.114816
0.112652
0.110759
0.109138
0.107788
0.106708
0.105898
0.105358
0.105088
0.105874
0.106149
0.106698
0.107523
0.108622
0.109996
0.111644
0.113568
0.115768
0.118245
0.121001
0.12404
0.127366
0.130987
0.134907
0.13913
0.143686
0.148858
0.156263
0.152913
0.138563
0.12336
0.107444
0.0909068
0.073802
0.0561565
0.0379809
0.0192812
6.83556e-05
-0.0196313
-0.0397233
-0.059817
-0.0782908
-0.0983857
-0.11119
-0.119048
-0.119852
-0.122737
-0.124589
-0.126818
-0.128841
-0.130309
-0.131648
-0.132824
-0.133699
-0.134257
-0.13468
-0.135036
-0.135309
-0.135459
-0.135459
-0.135309
-0.135036
-0.13468
-0.134257
-0.133699
-0.132824
-0.131648
-0.130309
-0.128841
-0.126818
-0.124589
-0.122737
-0.119852
-0.119048
-0.11119
-0.0983857
-0.0782908
-0.0598171
-0.0397234
-0.0196313
6.8292e-05
0.0192812
0.0379809
0.0561565
0.073802
0.0909068
0.107444
0.12336
0.138563
0.152913
0.156263
0.148858
0.143686
0.13913
0.134907
0.130987
0.127367
0.12404
0.121001
0.118245
0.115768
0.113568
0.111644
0.109996
0.108622
0.107523
0.106699
0.106149
0.105874
0.106253
0.106532
0.107089
0.107925
0.10904
0.110433
0.112104
0.114053
0.11628
0.118786
0.12157
0.124638
0.127995
0.131646
0.135592
0.139785
0.144011
0.147594
0.149487
0.137263
0.123133
0.107839
0.0916701
0.0747574
0.0571673
0.0389364
0.0200888
0.000640558
-0.0194151
-0.0401343
-0.0616706
-0.0843837
-0.0991598
-0.108488
-0.110372
-0.113994
-0.116251
-0.118584
-0.120618
-0.122592
-0.124384
-0.125888
-0.127191
-0.128297
-0.129174
-0.129828
-0.130322
-0.130698
-0.13096
-0.131095
-0.131095
-0.13096
-0.130698
-0.130323
-0.129828
-0.129174
-0.128297
-0.127191
-0.125889
-0.124384
-0.122592
-0.120618
-0.118584
-0.116251
-0.113994
-0.110372
-0.108488
-0.0991599
-0.0843837
-0.0616706
-0.0401344
-0.0194151
0.000640537
0.0200888
0.0389363
0.0571673
0.0747574
0.0916701
0.107839
0.123133
0.137263
0.149487
0.147594
0.144011
0.139785
0.135592
0.131646
0.127995
0.124638
0.121571
0.118786
0.11628
0.114054
0.112104
0.110433
0.10904
0.107925
0.107089
0.106532
0.106253
0.106218
0.1065
0.107064
0.10791
0.109037
0.110446
0.112135
0.114103
0.11635
0.118874
0.121676
0.124757
0.128126
0.131798
0.135803
0.140166
0.144723
0.147752
0.136549
0.123264
0.108646
0.0930042
0.0764857
0.059168
0.0410939
0.0222928
0.00279815
-0.0173497
-0.0381478
-0.0596879
-0.0822603
-0.0966555
-0.105215
-0.105753
-0.107537
-0.110024
-0.112291
-0.114446
-0.116426
-0.118266
-0.119931
-0.121387
-0.122647
-0.123716
-0.124589
-0.125275
-0.125802
-0.126192
-0.126454
-0.126586
-0.126586
-0.126454
-0.126192
-0.125802
-0.125275
-0.124589
-0.123716
-0.122647
-0.121387
-0.119931
-0.118266
-0.116426
-0.114446
-0.112291
-0.110024
-0.107537
-0.105753
-0.105215
-0.0966555
-0.0822604
-0.0596879
-0.0381478
-0.0173497
0.00279813
0.0222928
0.0410939
0.0591681
0.0764857
0.0930042
0.108646
0.123264
0.136549
0.147752
0.144723
0.140166
0.135803
0.131798
0.128126
0.124757
0.121676
0.118874
0.11635
0.114103
0.112135
0.110446
0.109038
0.10791
0.107065
0.106501
0.106219
0.105767
0.106052
0.10662
0.107473
0.10861
0.11003
0.111732
0.113715
0.115976
0.118511
0.121319
0.124397
0.127749
0.1314
0.135426
0.14011
0.146704
0.14187
0.125442
0.11038
0.0949952
0.0788908
0.0619814
0.0442534
0.0257048
0.00634077
-0.013799
-0.0346051
-0.0560082
-0.078031
-0.0907986
-0.0945045
-0.0990164
-0.101505
-0.103733
-0.106008
-0.108176
-0.110216
-0.112107
-0.113846
-0.115419
-0.116812
-0.118026
-0.119062
-0.119922
-0.120614
-0.121151
-0.121548
-0.12181
-0.121942
-0.121942
-0.12181
-0.121548
-0.121151
-0.120614
-0.119922
-0.119062
-0.118026
-0.116812
-0.115419
-0.113846
-0.112107
-0.110216
-0.108176
-0.106008
-0.103733
-0.101505
-0.0990165
-0.0945047
-0.0907987
-0.078031
-0.0560082
-0.0346051
-0.013799
0.00634076
0.0257048
0.0442534
0.0619814
0.0788908
0.0949952
0.110379
0.125442
0.14187
0.146704
0.14011
0.135426
0.1314
0.12775
0.124397
0.121319
0.118511
0.115976
0.113715
0.111733
0.11003
0.10861
0.107473
0.106621
0.106052
0.105767
0.104896
0.105182
0.105754
0.106612
0.107756
0.109184
0.110896
0.112889
0.11516
0.117702
0.120507
0.123567
0.12687
0.13041
0.13416
0.137896
0.139844
0.12732
0.112748
0.0976254
0.0819067
0.0654598
0.0482093
0.0301112
0.0111233
-0.00880134
-0.0296516
-0.0511396
-0.0730774
-0.0854083
-0.0881524
-0.0912989
-0.0945881
-0.0972635
-0.0996269
-0.101848
-0.103934
-0.105882
-0.107685
-0.109337
-0.110832
-0.112163
-0.113329
-0.11433
-0.115169
-0.115852
-0.116388
-0.116783
-0.117045
-0.117175
-0.117175
-0.117045
-0.116783
-0.116388
-0.115852
-0.115169
-0.11433
-0.113329
-0.112163
-0.110832
-0.109337
-0.107685
-0.105882
-0.103934
-0.101848
-0.0996269
-0.0972636
-0.0945881
-0.091299
-0.0881525
-0.0854084
-0.0730774
-0.0511396
-0.0296516
-0.00880136
0.0111233
0.0301112
0.0482093
0.0654598
0.0819067
0.0976254
0.112748
0.12732
0.139844
0.137896
0.13416
0.13041
0.12687
0.123567
0.120507
0.117702
0.11516
0.11289
0.110896
0.109184
0.107756
0.106612
0.105755
0.105183
0.104896
0.103604
0.103891
0.104465
0.105326
0.106473
0.107907
0.109626
0.111627
0.113906
0.116454
0.119258
0.122298
0.12555
0.128991
0.132678
0.137227
0.127201
0.11459
0.100411
0.085305
0.0694183
0.0527396
0.0352293
0.0168422
-0.00249643
-0.0229494
-0.0447519
-0.067062
-0.0795424
-0.0821371
-0.0848683
-0.087714
-0.0905348
-0.0930951
-0.0954242
-0.0975817
-0.0995893
-0.101453
-0.103172
-0.104745
-0.106169
-0.107439
-0.108556
-0.109519
-0.110332
-0.110999
-0.111524
-0.111913
-0.112171
-0.112299
-0.112299
-0.112171
-0.111913
-0.111524
-0.110999
-0.110332
-0.109519
-0.108556
-0.107439
-0.106169
-0.104746
-0.103173
-0.101453
-0.0995893
-0.0975818
-0.0954243
-0.0930951
-0.0905348
-0.0877141
-0.0848684
-0.0821371
-0.0795425
-0.0670621
-0.044752
-0.0229495
-0.00249643
0.0168422
0.0352293
0.0527396
0.0694183
0.085305
0.100411
0.11459
0.127201
0.137227
0.132678
0.128992
0.12555
0.122298
0.119258
0.116454
0.113906
0.111627
0.109626
0.107907
0.106473
0.105326
0.104465
0.103891
0.103605
0.101892
0.102178
0.102752
0.103613
0.104761
0.106197
0.10792
0.109928
0.112216
0.114775
0.117588
0.120624
0.123833
0.127111
0.130104
0.130886
0.116917
0.10323
0.088833
0.0736307
0.0576212
0.0407863
0.0230996
0.00453799
-0.0149465
-0.0356478
-0.0591958
-0.0726154
-0.0756694
-0.078506
-0.0812464
-0.08393