/*--------------------------------*- C++ -*----------------------------------*\
  =========                 |
  \\      /  F ield         | OpenFOAM: The Open Source CFD Toolbox
   \\    /   O peration     | Website:  https://openfoam.org
    \\  /    A nd           | Version:  7
     \\/     M anipulation  |
\*---------------------------------------------------------------------------*/
FoamFile
{
    version     2.0;
    format      ascii;
    class       volScalarField;
    location    "0.027";
    object      gradTx;
}
// * * * * * * * * * * * * * * * * * * * * * * * * * * * * * * * * * * * * * //

dimensions      [0 -1 0 1 0 0 0];

internalField   nonuniform List<scalar> 
10000
(
0.00402321
0.0120578
0.020056
0.0279936
0.0358466
0.0435909
0.051202
0.0586559
0.0659284
0.0729954
0.0798331
0.0864174
0.0927248
0.0987319
0.104415
0.109753
0.114722
0.119301
0.12347
0.127208
0.130496
0.133316
0.135652
0.137487
0.138809
0.139603
0.139859
0.139567
0.138719
0.137308
0.135328
0.132778
0.129657
0.125967
0.121714
0.116907
0.111559
0.105686
0.0993115
0.092458
0.0851531
0.0774257
0.0693071
0.0608308
0.0520343
0.04296
0.0336545
0.0241681
0.0145524
0.00485957
-0.00485897
-0.0145518
-0.0241675
-0.033654
-0.0429594
-0.0520338
-0.0608302
-0.0693065
-0.0774251
-0.0851525
-0.0924574
-0.0993109
-0.105686
-0.111558
-0.116906
-0.121714
-0.125967
-0.129657
-0.132778
-0.135328
-0.137307
-0.138719
-0.139567
-0.139859
-0.139603
-0.138809
-0.137487
-0.135652
-0.133316
-0.130496
-0.127208
-0.12347
-0.119301
-0.114722
-0.109753
-0.104415
-0.0987318
-0.0927247
-0.0864173
-0.0798329
-0.0729953
-0.0659282
-0.0586558
-0.0512019
-0.0435908
-0.0358467
-0.0279936
-0.0200558
-0.0120575
-0.00402316
0.00403566
0.0120953
0.0201187
0.0280813
0.0359592
0.0437283
0.0513643
0.058843
0.0661401
0.0732316
0.0800935
0.0867018
0.0930328
0.0990631
0.104769
0.110129
0.11512
0.11972
0.123908
0.127664
0.13097
0.133806
0.136157
0.138006
0.13934
0.140145
0.14041
0.140126
0.139283
0.137876
0.135899
0.133348
0.130224
0.126528
0.122265
0.117445
0.112079
0.106185
0.099786
0.0929054
0.0855714
0.0778131
0.0696609
0.0611474
0.0523092
0.0431885
0.0338333
0.0242957
0.0146288
0.00488496
-0.00488434
-0.0146281
-0.0242951
-0.0338328
-0.0431879
-0.0523087
-0.0611469
-0.0696604
-0.0778125
-0.0855708
-0.0929048
-0.0997854
-0.106185
-0.112078
-0.117444
-0.122265
-0.126528
-0.130224
-0.133348
-0.135898
-0.137875
-0.139283
-0.140125
-0.14041
-0.140145
-0.13934
-0.138006
-0.136157
-0.133806
-0.13097
-0.127664
-0.123908
-0.11972
-0.11512
-0.110129
-0.104769
-0.099063
-0.0930327
-0.0867017
-0.0800933
-0.0732315
-0.0661399
-0.0588428
-0.0513642
-0.0437283
-0.0359593
-0.0280814
-0.0201186
-0.0120951
-0.00403556
0.0040607
0.0121702
0.0202436
0.0282564
0.0361843
0.0440033
0.0516889
0.0592171
0.0665635
0.073704
0.0806144
0.0872708
0.0936492
0.099726
0.105478
0.110882
0.115915
0.120557
0.124784
0.128578
0.131919
0.134788
0.137169
0.139045
0.140403
0.141229
0.141513
0.141243
0.140412
0.139014
0.137041
0.134491
0.131361
0.127653
0.123371
0.118523
0.113122
0.107186
0.100737
0.0938019
0.0864096
0.07859
0.0703721
0.0617852
0.0528632
0.0436486
0.0341924
0.0245511
0.0147809
0.00493538
-0.00493477
-0.0147803
-0.0245505
-0.0341919
-0.043648
-0.0528627
-0.0617846
-0.0703715
-0.0785894
-0.086409
-0.0938013
-0.100737
-0.107186
-0.113122
-0.118523
-0.123371
-0.127653
-0.131361
-0.13449
-0.13704
-0.139013
-0.140412
-0.141243
-0.141512
-0.141229
-0.140403
-0.139045
-0.137169
-0.134788
-0.131919
-0.128578
-0.124784
-0.120557
-0.115915
-0.110882
-0.105478
-0.0997259
-0.0936491
-0.0872706
-0.0806142
-0.0737039
-0.0665634
-0.0592169
-0.0516888
-0.0440031
-0.0361842
-0.0282564
-0.0202438
-0.0121704
-0.00406073
0.00409837
0.012283
0.0204312
0.028519
0.0365219
0.0444156
0.0521758
0.0597783
0.0671987
0.0744127
0.0813961
0.0881246
0.0945741
0.100721
0.106541
0.112012
0.11711
0.121814
0.126101
0.129951
0.133345
0.136263
0.138689
0.140606
0.142
0.142858
0.143169
0.142922
0.14211
0.140724
0.138759
0.13621
0.133073
0.129349
0.125039
0.120151
0.114696
0.108694
0.102169
0.0951501
0.0876699
0.0797603
0.0714475
0.0627537
0.0537062
0.0443469
0.0347342
0.0249334
0.0150071
0.00501015
-0.00500952
-0.0150065
-0.0249329
-0.0347337
-0.0443464
-0.0537057
-0.0627532
-0.0714469
-0.0797597
-0.0876693
-0.0951495
-0.102169
-0.108694
-0.114696
-0.12015
-0.125039
-0.129349
-0.133073
-0.136209
-0.138758
-0.140724
-0.142109
-0.142922
-0.143169
-0.142858
-0.142
-0.140606
-0.138689
-0.136263
-0.133345
-0.129951
-0.126101
-0.121814
-0.11711
-0.112012
-0.106541
-0.100721
-0.094574
-0.0881244
-0.0813959
-0.0744126
-0.0671986
-0.0597782
-0.0521758
-0.0444155
-0.0365217
-0.0285189
-0.0204313
-0.012283
-0.00409835
0.00414844
0.0124331
0.0206814
0.0288691
0.0369718
0.0449652
0.052825
0.0605267
0.0680459
0.075358
0.0824387
0.0892636
0.0958084
0.102049
0.107961
0.113521
0.118706
0.123493
0.12786
0.131786
0.135251
0.138235
0.140721
0.142693
0.144135
0.145036
0.145383
0.145167
0.144379
0.143011
0.141058
0.138512
0.135369
0.131625
0.12728
0.122338
0.116812
0.11072
0.104089
0.0969529
0.0893535
0.0813278
0.0728981
0.064071
0.0548564
0.0452949
0.035461
0.0254391
0.0153027
0.00510708
-0.00510645
-0.015302
-0.0254385
-0.0354604
-0.0452943
-0.0548558
-0.0640705
-0.0728975
-0.0813272
-0.0893529
-0.0969523
-0.104088
-0.110719
-0.116811
-0.122338
-0.127279
-0.131625
-0.135369
-0.138512
-0.141057
-0.143011
-0.144378
-0.145166
-0.145382
-0.145035
-0.144135
-0.142692
-0.140721
-0.138235
-0.135251
-0.131786
-0.12786
-0.123493
-0.118706
-0.113521
-0.107961
-0.102049
-0.0958082
-0.0892635
-0.0824386
-0.0753578
-0.0680457
-0.0605266
-0.0528249
-0.0449652
-0.0369718
-0.028869
-0.0206814
-0.0124331
-0.0041484
0.00421094
0.0126206
0.0209939
0.0293065
0.0375341
0.0456522
0.0536363
0.0614621
0.0691049
0.07654
0.0837427
0.0906885
0.0973527
0.103711
0.109738
0.11541
0.120705
0.125597
0.130064
0.134086
0.13764
0.140707
0.143269
0.145309
0.146812
0.147765
0.148158
0.14798
0.147223
0.14588
0.143944
0.141406
0.138259
0.134495
0.130109
0.125103
0.119485
0.113276
0.106504
0.0992116
0.0914556
0.0832918
0.0747393
0.0657696
0.0563478
0.0465105
0.0363721
0.0260567
0.0156557
0.00522145
-0.00522081
-0.0156551
-0.0260561
-0.0363715
-0.0465099
-0.0563473
-0.0657691
-0.0747387
-0.0832913
-0.091455
-0.099211
-0.106503
-0.113275
-0.119485
-0.125103
-0.130109
-0.134495
-0.138258
-0.141406
-0.143943
-0.14588
-0.147223
-0.14798
-0.148158
-0.147765
-0.146812
-0.145309
-0.143269
-0.140707
-0.13764
-0.134086
-0.130064
-0.125597
-0.120705
-0.11541
-0.109738
-0.10371
-0.0973525
-0.0906884
-0.0837426
-0.0765398
-0.0691047
-0.061462
-0.0536362
-0.0456521
-0.037534
-0.0293064
-0.0209938
-0.0126206
-0.00421094
0.0042859
0.0128455
0.0213686
0.0298311
0.0382084
0.0464761
0.0546097
0.0625845
0.0703758
0.0779588
0.0853084
0.0923998
0.0992078
0.105708
0.111874
0.117683
0.123109
0.128128
0.132718
0.136855
0.140517
0.143685
0.146338
0.14846
0.150036
0.151053
0.1515
0.151367
0.150648
0.149336
0.147423
0.144901
0.141757
0.137977
0.13355
0.128469
0.122739
0.116383
0.10943
0.101924
0.0939559
0.0856355
0.076989
0.0679125
0.058248
0.0480214
0.0374556
0.0267567
0.0160402
0.00534315
-0.00534251
-0.0160395
-0.0267561
-0.0374551
-0.0480209
-0.0582474
-0.0679119
-0.0769885
-0.0856349
-0.0939553
-0.101923
-0.10943
-0.116383
-0.122739
-0.128468
-0.13355
-0.137977
-0.141756
-0.1449
-0.147423
-0.149336
-0.150648
-0.151367
-0.151499
-0.151053
-0.150036
-0.14846
-0.146338
-0.143684
-0.140517
-0.136855
-0.132718
-0.128128
-0.123109
-0.117683
-0.111874
-0.105707
-0.0992077
-0.0923996
-0.0853083
-0.0779586
-0.0703757
-0.0625844
-0.0546096
-0.046476
-0.0382084
-0.029831
-0.0213686
-0.0128455
-0.00428587
0.00437324
0.0131075
0.0218054
0.0304426
0.0389945
0.0474368
0.0557448
0.0638937
0.0718587
0.0796145
0.087136
0.094398
0.101375
0.108041
0.114371
0.12034
0.125921
0.131091
0.135825
0.140098
0.143889
0.147174
0.149936
0.152155
0.153816
0.154905
0.155414
0.155333
0.154658
0.153383
0.151503
0.149006
0.145878
0.142095
0.137632
0.13247
0.126607
0.120074
0.112897
0.105085
0.0967967
0.0882941
0.0796584
0.0706334
0.0607018
0.0498645
0.0386668
0.0274704
0.0164026
0.00545275
-0.00545211
-0.016402
-0.0274698
-0.0386662
-0.0498639
-0.0607012
-0.0706328
-0.0796579
-0.0882935
-0.0967961
-0.105084
-0.112896
-0.120074
-0.126607
-0.132469
-0.137631
-0.142094
-0.145877
-0.149006
-0.151502
-0.153383
-0.154658
-0.155333
-0.155414
-0.154905
-0.153815
-0.152155
-0.149936
-0.147174
-0.143888
-0.140098
-0.135825
-0.131091
-0.125921
-0.12034
-0.114371
-0.108041
-0.101375
-0.0943978
-0.0871359
-0.0796144
-0.0718585
-0.0638937
-0.0557447
-0.0474367
-0.0389945
-0.0304426
-0.0218054
-0.0131075
-0.00437322
0.00447294
0.0134067
0.022304
0.0311407
0.0398921
0.0485339
0.0570413
0.0653894
0.0735531
0.0815071
0.0892258
0.0966836
0.103854
0.110712
0.117231
0.123384
0.129146
0.13449
0.13939
0.143822
0.147761
0.151184
0.154071
0.156401
0.158158
0.15933
0.159908
0.159883
0.159255
0.158023
0.156184
0.153729
0.150638
0.146876
0.142396
0.137154
0.131129
0.124394
0.116981
0.108707
0.0998375
0.0910717
0.0827043
0.0742488
0.0640505
0.0520591
0.0398701
0.028051
0.0166445
0.00551645
-0.00551579
-0.0166438
-0.0280503
-0.0398695
-0.0520585
-0.0640499
-0.0742482
-0.0827038
-0.0910712
-0.0998369
-0.108706
-0.116981
-0.124393
-0.131128
-0.137153
-0.142396
-0.146876
-0.150638
-0.153729
-0.156183
-0.158023
-0.159255
-0.159883
-0.159907
-0.15933
-0.158158
-0.1564
-0.15407
-0.151184
-0.147761
-0.143822
-0.13939
-0.134489
-0.129146
-0.123384
-0.117231
-0.110712
-0.103854
-0.0966835
-0.0892257
-0.081507
-0.073553
-0.0653894
-0.0570413
-0.0485339
-0.0398921
-0.0311407
-0.022304
-0.0134067
-0.00447295
0.00458493
0.0137427
0.0228641
0.0319249
0.0409006
0.0497668
0.0584986
0.067071
0.0754588
0.0836363
0.0915778
0.099257
0.106648
0.113723
0.120455
0.126819
0.132785
0.138328
0.14342
0.148034
0.152143
0.155724
0.158753
0.161209
0.163075
0.164338
0.164989
0.165023
0.164441
0.163253
0.161463
0.159069
0.156049
0.152356
0.147903
0.1426
0.136338
0.129371
0.121908
0.112905
0.102757
0.0934347
0.0858224
0.0795917
0.0691789
0.0544407
0.0406955
0.0282135
0.0166048
0.0054833
-0.00548263
-0.0166042
-0.0282129
-0.0406949
-0.0544401
-0.0691783
-0.0795912
-0.0858219
-0.0934341
-0.102756
-0.112904
-0.121907
-0.129371
-0.136338
-0.1426
-0.147902
-0.152356
-0.156049
-0.159069
-0.161462
-0.163252
-0.164441
-0.165022
-0.164989
-0.164338
-0.163075
-0.161209
-0.158753
-0.155724
-0.152143
-0.148034
-0.14342
-0.138328
-0.132785
-0.126819
-0.120455
-0.113723
-0.106647
-0.0992569
-0.0915776
-0.0836362
-0.0754587
-0.067071
-0.0584986
-0.0497668
-0.0409007
-0.0319249
-0.022864
-0.0137427
-0.00458495
0.00470912
0.0141152
0.0234851
0.0327947
0.0420194
0.0511347
0.0601159
0.0689378
0.0775749
0.0860016
0.0941915
0.102118
0.109755
0.117073
0.124047
0.130646
0.136845
0.142612
0.147921
0.152741
0.157045
0.160805
0.163996
0.166594
0.168581
0.169943
0.170669
0.170757
0.170215
0.169062
0.167323
0.165012
0.162109
0.158572
0.154232
0.14898
0.142228
0.134819
0.128349
0.118226
0.10483
0.0940683
0.08754
0.0890972
0.0786149
0.0558163
0.0402486
0.0274968
0.0160747
0.00529354
-0.00529291
-0.016074
-0.0274962
-0.040248
-0.0558156
-0.0786143
-0.0890966
-0.0875395
-0.0940678
-0.10483
-0.118225
-0.128348
-0.134819
-0.142228
-0.14898
-0.154231
-0.158572
-0.162109
-0.165012
-0.167322
-0.169062
-0.170214
-0.170757
-0.170669
-0.169942
-0.168581
-0.166594
-0.163996
-0.160805
-0.157045
-0.152741
-0.147921
-0.142612
-0.136844
-0.130646
-0.124047
-0.117073
-0.109754
-0.102118
-0.0941914
-0.0860015
-0.0775748
-0.0689377
-0.0601158
-0.0511347
-0.0420194
-0.0327947
-0.0234851
-0.0141152
-0.00470912
0.00484539
0.014524
0.0241666
0.0337492
0.0432473
0.0526365
0.061892
0.0709885
0.0799005
0.088602
0.0970664
0.105267
0.113176
0.120765
0.128006
0.134869
0.141326
0.147346
0.152899
0.157953
0.162478
0.166441
0.169815
0.172572
0.174692
0.176161
0.176966
0.177099
0.176573
0.175432
0.173726
0.171518
0.168774
0.16556
0.161441
0.156829
0.148744
0.139299
0.138413
0.12679
0.104247
0.0904474
0.081151
0.074435
0.0641625
0.049946
0.0369768
0.0254447
0.0149003
0.00490809
-0.00490745
-0.0148997
-0.0254441
-0.0369762
-0.0499454
-0.0641619
-0.0744344
-0.0811504
-0.0904468
-0.104247
-0.12679
-0.138412
-0.139299
-0.148744
-0.156829
-0.16144
-0.16556
-0.168773
-0.171517
-0.173726
-0.175431
-0.176573
-0.177099
-0.176965
-0.17616
-0.174692
-0.172571
-0.169814
-0.166441
-0.162478
-0.157953
-0.152899
-0.147346
-0.141326
-0.134869
-0.128006
-0.120765
-0.113176
-0.105267
-0.0970663
-0.0886019
-0.0799004
-0.0709884
-0.0618919
-0.0526364
-0.0432474
-0.0337492
-0.0241666
-0.014524
-0.00484535
0.00499351
0.0149686
0.0249079
0.0347875
0.0445834
0.0542709
0.0638254
0.0732216
0.0824339
0.0914361
0.100201
0.108702
0.11691
0.124797
0.132334
0.139489
0.146234
0.152535
0.158362
0.163679
0.168453
0.172648
0.176228
0.179164
0.181431
0.183016
0.183906
0.184072
0.183515
0.182333
0.1806
0.178524
0.175871
0.173418
0.169103
0.168113
0.156584
0.135185
0.122994
0.11006
0.0948959
0.0823028
0.0721631
0.0633105
0.0536378
0.0428166
0.0322598
0.0224
0.0131709
0.00434508
-0.00434444
-0.0131703
-0.0223994
-0.0322591
-0.042816
-0.0536372
-0.06331
-0.0721626
-0.0823023
-0.0948954
-0.11006
-0.122994
-0.135185
-0.156583
-0.168113
-0.169103
-0.173417
-0.17587
-0.178524
-0.180599
-0.182333
-0.183514
-0.184072
-0.183905
-0.183016
-0.181431
-0.179163
-0.176228
-0.172648
-0.168453
-0.163679
-0.158362
-0.152535
-0.146234
-0.139489
-0.132334
-0.124797
-0.11691
-0.108702
-0.100201
-0.091436
-0.0824339
-0.0732216
-0.0638253
-0.0542708
-0.0445833
-0.0347876
-0.0249078
-0.0149686
-0.0049935
0.00515338
0.0154484
0.0257079
0.0359084
0.0460259
0.056036
0.0659141
0.0756351
0.0851732
0.0945021
0.103595
0.112423
0.120958
0.129171
0.137031
0.144508
0.15157
0.158183
0.164315
0.169929
0.174986
0.179445
0.183261
0.186395
0.188821
0.190536
0.191535
0.191734
0.191043
0.189749
0.187775
0.186068
0.182725
0.183093
0.173396
0.153708
0.138068
0.121829
0.108288
0.0955339
0.082953
0.0716882
0.0618738
0.0529934
0.0442505
0.0354147
0.02684
0.0187208
0.0110364
0.00364505
-0.0036444
-0.0110357
-0.0187202
-0.0268394
-0.0354141
-0.0442498
-0.0529928
-0.0618732
-0.0716877
-0.0829525
-0.0955334
-0.108287
-0.121828
-0.138068
-0.153708
-0.173396
-0.183092
-0.182724
-0.186067
-0.187774
-0.189748
-0.191043
-0.191733
-0.191534
-0.190535
-0.188821
-0.186395
-0.183261
-0.179445
-0.174986
-0.169929
-0.164315
-0.158183
-0.15157
-0.144508
-0.137031
-0.129171
-0.120958
-0.112423
-0.103594
-0.094502
-0.0851731
-0.0756351
-0.0659141
-0.0560359
-0.0460259
-0.0359084
-0.0257079
-0.0154483
-0.00515338
0.00532471
0.0159627
0.0265657
0.0371103
0.047573
0.0579296
0.0681558
0.0782264
0.0881156
0.0977971
0.107243
0.116426
0.125317
0.133884
0.142098
0.149925
0.157335
0.164292
0.170763
0.17671
0.182091
0.186855
0.190944
0.1943
0.196886
0.198732
0.199923
0.200242
0.199133
0.197797
0.194636
0.195198
0.185818
0.166598
0.15145
0.135213
0.120118
0.105746
0.0927705
0.0808156
0.069679
0.0596114
0.050641
0.0425309
0.0349497
0.0277472
0.0209615
0.014605
0.00860762
0.00284282
-0.00284219
-0.00860701
-0.0146043
-0.0209609
-0.0277465
-0.0349491
-0.0425303
-0.0506404
-0.0596108
-0.0696785
-0.0808151
-0.09277
-0.105745
-0.120117
-0.135213
-0.151449
-0.166598
-0.185818
-0.195197
-0.194636
-0.197797
-0.199132
-0.200241
-0.199922
-0.198732
-0.196886
-0.1943
-0.190944
-0.186855
-0.182091
-0.17671
-0.170763
-0.164292
-0.157335
-0.149925
-0.142098
-0.133884
-0.125317
-0.116426
-0.107243
-0.097797
-0.0881156
-0.0782263
-0.0681557
-0.0579296
-0.047573
-0.0371103
-0.0265656
-0.0159626
-0.00532476
0.00550734
0.0165107
0.0274798
0.0383914
0.0492225
0.0599492
0.0705473
0.080992
0.0912576
0.101318
0.111145
0.12071
0.129984
0.138935
0.147531
0.15574
0.163528
0.170862
0.177708
0.184028
0.189779
0.194903
0.199323
0.202934
0.205647
0.207539
0.209134
0.210127
0.207396
0.207617
0.197721
0.178031
0.162516
0.145988
0.130551
0.115545
0.101417
0.0882448
0.076217
0.0652668
0.0553273
0.0464311
0.0385437
0.0315366
0.0252686
0.0196617
0.0146537
0.0101298
0.00594647
0.00196089
-0.00196026
-0.00594582
-0.0101292
-0.0146532
-0.0196611
-0.025268
-0.0315361
-0.0385431
-0.0464305
-0.0553268
-0.0652663
-0.0762165
-0.0882443
-0.101417
-0.115545
-0.130551
-0.145988
-0.162516
-0.178031
-0.197721
-0.207616
-0.207396
-0.210127
-0.209134
-0.207538
-0.205647
-0.202934
-0.199323
-0.194903
-0.189778
-0.184028
-0.177708
-0.170862
-0.163528
-0.15574
-0.147531
-0.138935
-0.129984
-0.12071
-0.111145
-0.101318
-0.0912576
-0.080992
-0.0705472
-0.0599491
-0.0492225
-0.0383914
-0.0274797
-0.0165107
-0.00550737
0.00570085
0.0170915
0.0284486
0.0397496
0.0509715
0.0620912
0.0730848
0.0839279
0.0945949
0.105059
0.115294
0.125269
0.134955
0.14432
0.15333
0.161951
0.170149
0.177891
0.185144
0.191878
0.198053
0.203615
0.208464
0.212417
0.21518
0.216586
0.218892
0.223677
0.212648
0.191309
0.174362
0.156641
0.140184
0.124251
0.109193
0.0949757
0.0817443
0.069587
0.0585774
0.0487025
0.03993
0.0322417
0.0255673
0.0198058
0.0149291
0.0109804
0.00786458
0.00531612
0.00308888
0.00101501
-0.00101439
-0.00308823
-0.00531551
-0.007864
-0.0109798
-0.0149285
-0.0198052
-0.0255668
-0.0322412
-0.0399295
-0.048702
-0.0585769
-0.0695865
-0.0817438
-0.0949753
-0.109192
-0.124251
-0.140183
-0.15664
-0.174361
-0.191309
-0.212648
-0.223677
-0.218892
-0.216586
-0.215179
-0.212417
-0.208463
-0.203614
-0.198053
-0.191877
-0.185144
-0.177891
-0.170149
-0.161951
-0.15333
-0.14432
-0.134955
-0.125269
-0.115294
-0.105059
-0.0945949
-0.0839278
-0.0730848
-0.0620912
-0.0509715
-0.0397495
-0.0284485
-0.0170915
-0.0057009
0.00590492
0.017704
0.0294704
0.0411821
0.0528168
0.0643518
0.075764
0.087029
0.0981219
0.109017
0.119685
0.130099
0.140227
0.150036
0.15949
0.168554
0.177193
0.185371
0.193062
0.200242
0.206895
0.212989
0.218446
0.223035
0.226008
0.224672
0.226104
0.216791
0.191962
0.170556
0.151727
0.133947
0.117295
0.101616
0.0869744
0.0734075
0.060989
0.0497776
0.0398031
0.0310384
0.0234536
0.0170451
0.0116856
0.00719791
0.00366921
0.0014732
0.00051399
0.000185617
8.05211e-05
2.56227e-05
-2.49875e-05
-7.99176e-05
-0.000185013
-0.000513408
-0.00147261
-0.00366862
-0.00719738
-0.011685
-0.0170445
-0.0234531
-0.0310379
-0.0398026
-0.0497772
-0.0609885
-0.0734071
-0.0869739
-0.101615
-0.117295
-0.133947
-0.151727
-0.170555
-0.191962
-0.216791
-0.226104
-0.224671
-0.226008
-0.223034
-0.218446
-0.212989
-0.206895
-0.200242
-0.193062
-0.185371
-0.177193
-0.168554
-0.15949
-0.150036
-0.140227
-0.130099
-0.119685
-0.109017
-0.0981219
-0.087029
-0.0757639
-0.0643519
-0.0528168
-0.041182
-0.0294703
-0.017704
-0.00590495
0.0061191
0.0183468
0.0305428
0.042686
0.0547545
0.0667264
0.0785792
0.0902892
0.101832
0.113182
0.124312
0.135193
0.145792
0.156077
0.166009
0.175549
0.184658
0.193298
0.201443
0.209086
0.216241
0.222941
0.229235
0.235201
0.241076
0.229918
0.207807
0.18917
0.167798
0.147177
0.128009
0.110096
0.0934126
0.077928
0.0636729
0.0506881
0.0390281
0.028737
0.0198273
0.0122054
0.00581358
0.000812908
-0.00305406
-0.006355
-0.00891016
-0.0092591
-0.007458
-0.00516133
-0.00297386
-0.000966761
0.000967365
0.00297448
0.00516191
0.00745856
0.00925969
0.00891075
0.00635554
0.00305461
-0.000812336
-0.00581306
-0.0122049
-0.0198268
-0.0287366
-0.0390276
-0.0506876
-0.0636725
-0.0779275
-0.0934122
-0.110096
-0.128008
-0.147176
-0.167798
-0.18917
-0.207806
-0.229918
-0.241076
-0.235201
-0.229235
-0.222941
-0.216241
-0.209086
-0.201443
-0.193298
-0.184658
-0.175549
-0.166009
-0.156077
-0.145792
-0.135193
-0.124312
-0.113182
-0.101832
-0.0902891
-0.0785791
-0.0667264
-0.0547545
-0.0426859
-0.0305428
-0.0183468
-0.00611912
0.00634287
0.0190185
0.0316636
0.0442578
0.0567802
0.0692096
0.0815241
0.0937012
0.105717
0.117547
0.129165
0.14054
0.151643
0.162437
0.172883
0.182935
0.192547
0.20167
0.210273
0.21836
0.225979
0.233233
0.240281
0.24738
0.236915
0.209861
0.185969
0.16423
0.142837
0.122311
0.103008
0.0849993
0.0683212
0.0530072
0.0391038
0.0266514
0.0157101
0.0063304
-0.00141834
-0.00783775
-0.0131967
-0.0165317
-0.0183387
-0.0206333
-0.0236764
-0.0221243
-0.0159121
-0.0103897
-0.00584238
-0.00188426
0.00188487
0.00584299
0.0103903
0.0159127
0.0221249
0.023677
0.0206338
0.0183392
0.0165323
0.0131972
0.00783825
0.00141883
-0.00632992
-0.0157097
-0.0266509
-0.0391034
-0.0530067
-0.0683207
-0.0849989
-0.103007
-0.12231
-0.142837
-0.164229
-0.185968
-0.209861
-0.236915
-0.247379
-0.240281
-0.233233
-0.225979
-0.21836
-0.210273
-0.20167
-0.192547
-0.182935
-0.172883
-0.162437
-0.151643
-0.14054
-0.129165
-0.117547
-0.105717
-0.0937012
-0.0815241
-0.0692095
-0.0567802
-0.0442578
-0.0316636
-0.0190185
-0.00634287
0.00657571
0.0197174
0.03283
0.0458937
0.0588889
0.071795
0.0845914
0.0972565
0.109768
0.122101
0.134232
0.146131
0.157768
0.169108
0.180108
0.190717
0.200872
0.210506
0.21956
0.228035
0.236013
0.243656
0.251194
0.240853
0.213081
0.186574
0.161922
0.138898
0.116977
0.096197
0.0766987
0.0585664
0.0418672
0.0266842
0.0130977
0.00112242
-0.00914656
-0.0176814
-0.0239654
-0.0289121
-0.0342008
-0.0353748
-0.0331074
-0.0341356
-0.0430108
-0.0396259
-0.0236589
-0.014631
-0.00811484
-0.00261054
0.00261116
0.00811543
0.0146316
0.0236595
0.0396264
0.0430113
0.0341361
0.0331079
0.0353754
0.0342013
0.0289126
0.0239659
0.0176818
0.009147
-0.00112197
-0.0130973
-0.0266837
-0.0418667
-0.058566
-0.0766982
-0.0961966
-0.116976
-0.138898
-0.161922
-0.186573
-0.21308
-0.240853
-0.251194
-0.243655
-0.236013
-0.228034
-0.21956
-0.210506
-0.200872
-0.190717
-0.180108
-0.169108
-0.157768
-0.146131
-0.134232
-0.122101
-0.109768
-0.0972565
-0.0845914
-0.071795
-0.0588889
-0.0458938
-0.0328299
-0.0197174
-0.00657571
0.00681701
0.0204418
0.0340388
0.0475895
0.061075
0.0744759
0.0877728
0.100945
0.113972
0.126831
0.139499
0.151949
0.164152
0.176075
0.187675
0.198898
0.209663
0.219858
0.229358
0.238132
0.246301
0.254096
0.243714
0.215491
0.187908
0.161373
0.136204
0.112432
0.0899533
0.0687911
0.0490216
0.0307071
0.013911
-0.00121491
-0.0144932
-0.0260819
-0.0357027
-0.0439065
-0.047811
-0.0496051
-0.059279
-0.0576205
-0.0445452
-0.0397569
-0.0383874
-0.0334958
-0.0244453
-0.0163468
-0.00936761
-0.0030517
0.00305226
0.00936822
0.0163473
0.0244458
0.0334963
0.038388
0.0397575
0.0445457
0.0576211
0.0592796
0.0496056
0.0478115
0.043907
0.0357032
0.0260824
0.0144937
0.00121534
-0.0139106
-0.0307066
-0.0490212
-0.0687906
-0.0899528
-0.112432
-0.136204
-0.161372
-0.187908
-0.215491
-0.243713
-0.254096
-0.246301
-0.238131
-0.229358
-0.219858
-0.209663
-0.198898
-0.187675
-0.176075
-0.164152
-0.151949
-0.139499
-0.126831
-0.113972
-0.100945
-0.0877728
-0.0744759
-0.061075
-0.0475895
-0.0340388
-0.0204418
-0.00681701
0.0070661
0.0211896
0.0352869
0.0493404
0.0633324
0.0772447
0.0910589
0.104756
0.118318
0.131722
0.144949
0.157974
0.170772
0.183315
0.195566
0.207476
0.218958
0.229833
0.239805
0.248749
0.256875
0.246438
0.217801
0.189416
0.161628
0.13476
0.109058
0.0846526
0.0616044
0.0399938
0.0199008
0.00134872
-0.0156881
-0.0309277
-0.0437345
-0.0552102
-0.0636281
-0.0743807
-0.0737165
-0.0623688
-0.0594561
-0.0550526
-0.0476557
-0.0419242
-0.0372536
-0.0314965
-0.0242589
-0.0169292
-0.00994908
-0.00327825
0.0032788
0.00994965
0.0169298
0.0242594
0.0314971
0.0372541
0.0419248
0.0476563
0.0550532
0.0594567
0.0623693
0.073717
0.0743812
0.0636286
0.0552107
0.0437349
0.0309281
0.0156886
-0.00134823
-0.0199003
-0.0399933
-0.0616039
-0.0846521
-0.109058
-0.134759
-0.161628
-0.189415
-0.217801
-0.246437
-0.256875
-0.248749
-0.239805
-0.229832
-0.218958
-0.207476
-0.195566
-0.183314
-0.170772
-0.157974
-0.144949
-0.131722
-0.118318
-0.104756
-0.091059
-0.0772447
-0.0633324
-0.0493405
-0.0352869
-0.0211896
-0.00706612
0.00732234
0.0219589
0.0365708
0.0511416
0.0656546
0.080093
0.0944399
0.108678
0.122789
0.136756
0.15056
0.164181
0.177599
0.190791
0.203736
0.216417
0.228786
0.240629
0.251193
0.26009
0.249734
0.220703
0.191559
0.162679
0.134382
0.106946
0.0805975
0.0555082
0.0318224
0.00969395
-0.0107364
-0.0294915
-0.0470432
-0.0630252
-0.0742531
-0.087338
-0.0891574
-0.0800256
-0.0740619
-0.0666432
-0.0610737
-0.0554322
-0.0490614
-0.0429962
-0.0371761
-0.0309526
-0.0241453
-0.0171486
-0.0102133
-0.00338839
0.00338892
0.0102139
0.0171491
0.0241458
0.0309531
0.0371766
0.0429967
0.049062
0.0554327
0.0610743
0.0666437
0.0740624
0.0800261
0.0891579
0.0873385
0.0742536
0.0630256
0.0470437
0.029492
0.0107369
-0.00969347
-0.0318219
-0.0555077
-0.080597
-0.106945
-0.134382
-0.162679
-0.191559
-0.220703
-0.249734
-0.26009
-0.251193
-0.240629
-0.228786
-0.216417
-0.203736
-0.190791
-0.177599
-0.164181
-0.15056
-0.136756
-0.122789
-0.108678
-0.0944399
-0.0800931
-0.0656546
-0.0511416
-0.0365707
-0.0219589
-0.00732237
0.00758499
0.0227473
0.0378867
0.0529878
0.0680349
0.0830125
0.097905
0.112697
0.127372
0.141915
0.156311
0.170543
0.184595
0.198451
0.212105
0.225593
0.239059
0.252616
0.26415
0.254402
0.224987
0.195
0.164989
0.135309
0.106241
0.0780244
0.0508712
0.0249667
0.000501338
-0.0222748
-0.0430098
-0.0614871
-0.0799116
-0.0998126
-0.102846
-0.0944764
-0.0893841
-0.0824368
-0.0758024
-0.069015
-0.0627151
-0.0564976
-0.0501236
-0.0437901
-0.0374736
-0.0309693
-0.0242029
-0.0172937
-0.0103596
-0.00344833
0.00344885
0.0103602
0.0172943
0.0242034
0.0309698
0.0374742
0.0437906
0.0501241
0.0564982
0.0627156
0.0690156
0.0758029
0.0824373
0.0893846
0.0944769
0.102847
0.0998131
0.0799121
0.0614876
0.0430102
0.0222753
-0.000500861
-0.0249662
-0.0508707
-0.078024
-0.10624
-0.135309
-0.164988
-0.195
-0.224987
-0.254401
-0.26415
-0.252616
-0.239058
-0.225593
-0.212105
-0.198451
-0.184595
-0.170543
-0.156311
-0.141915
-0.127372
-0.112697
-0.097905
-0.0830125
-0.0680349
-0.0529878
-0.0378867
-0.0227474
-0.007585
0.00785332
0.0235529
0.0392311
0.0548737
0.0704663
0.0859944
0.101444
0.1168
0.132049
0.147179
0.162177
0.177031
0.191728
0.206246
0.220563
0.23471
0.249147
0.266526
0.2621
0.232095
0.200727
0.169251
0.138033
0.107291
0.0772254
0.0480336
0.0199037
-0.00699317
-0.0324759
-0.0562403
-0.0774861
-0.093472
-0.111231
-0.117205
-0.10658
-0.0982626
-0.0913964
-0.0844718
-0.0776386
-0.0708477
-0.0642277
-0.0576783
-0.0511089
-0.0445355
-0.0379324
-0.0312262
-0.0243863
-0.0174517
-0.0104759
-0.00349169
0.0034922
0.0104764
0.0174522
0.0243868
0.0312267
0.0379329
0.0445361
0.0511094
0.0576789
0.0642282
0.0708482
0.0776391
0.0844723
0.0913969
0.0982631
0.106581
0.117205
0.111231
0.0934725
0.0774866
0.0562407
0.0324764
0.00699365
-0.0199033
-0.0480331
-0.077225
-0.107291
-0.138033
-0.169251
-0.200726
-0.232094
-0.2621
-0.266526
-0.249147
-0.23471
-0.220563
-0.206246
-0.191728
-0.177031
-0.162177
-0.147179
-0.132049
-0.1168
-0.101444
-0.0859944
-0.0704663
-0.0548737
-0.0392311
-0.0235529
-0.00785335
0.00812656
0.0243732
0.0406001
0.0567942
0.072942
0.08903
0.105045
0.120974
0.136805
0.152527
0.168133
0.183617
0.19897
0.214167
0.229108
0.243447
0.256192
0.265948
0.249339
0.211057
0.176499
0.143186
0.110562
0.078574
0.0473283
0.0169882
-0.0122747
-0.0403314
-0.0671227
-0.0926634
-0.117151
-0.123605
-0.118067
-0.114925
-0.107927
-0.100525
-0.0934003
-0.0863547
-0.0793773
-0.07246
-0.0656251
-0.0588398
-0.0520636
-0.0452808
-0.0384689
-0.0315962
-0.0246484
-0.0176393
-0.0105938
-0.00353245
0.00353293
0.0105943
0.0176398
0.0246489
0.0315967
0.0384695
0.0452814
0.0520641
0.0588403
0.0656257
0.0724605
0.0793779
0.0863552
0.0934008
0.100525
0.107927
0.114926
0.118068
0.123606
0.117151
0.0926639
0.0671232
0.0403319
0.0122752
-0.0169878
-0.0473279
-0.0785736
-0.110561
-0.143186
-0.176499
-0.211056
-0.249339
-0.265948
-0.256192
-0.243447
-0.229108
-0.214167
-0.19897
-0.183617
-0.168133
-0.152527
-0.136805
-0.120974
-0.105045
-0.0890301
-0.072942
-0.0567942
-0.0406001
-0.0243732
-0.00812658
0.00840396
0.0252059
0.04199
0.0587439
0.0754553
0.0921114
0.1087
0.125207
0.141624
0.157941
0.174154
0.190268
0.206296
0.222263
0.238162
0.25368
0.266117
0.255441
0.221965
0.18621
0.150962
0.116387
0.0824263
0.0491042
0.0165317
-0.0151123
-0.0456221
-0.0748834
-0.102954
-0.130061
-0.138577
-0.129457
-0.122421
-0.11642
-0.1096
-0.102439
-0.0952613
-0.0881111
-0.0810033
-0.0739422
-0.0669307
-0.0599543
-0.0529919
-0.0460269
-0.0390424
-0.0320216
-0.0249567
-0.0178525
-0.0107211
-0.00357502
0.00357551
0.0107216
0.017853
0.0249571
0.0320221
0.0390429
0.0460275
0.0529924
0.0599549
0.0669313
0.0739427
0.0810038
0.0881116
0.0952618
0.10244
0.1096
0.11642
0.122422
0.129457
0.138577
0.130061
0.102955
0.0748839
0.0456226
0.0151128
-0.0165312
-0.0491038
-0.0824259
-0.116387
-0.150962
-0.18621
-0.221965
-0.255441
-0.266116
-0.25368
-0.238162
-0.222263
-0.206296
-0.190268
-0.174154
-0.157941
-0.141624
-0.125207
-0.1087
-0.0921114
-0.0754553
-0.058744
-0.04199
-0.025206
-0.008404
0.00868475
0.0260488
0.0433968
0.0607177
0.0779997
0.0952308
0.112398
0.12949
0.146494
0.163401
0.18021
0.196932
0.213605
0.230336
0.247501
0.266883
0.262856
0.231441
0.196778
0.160784
0.124701
0.0889402
0.0536378
0.0188882
-0.0151731
-0.0483099
-0.0801649
-0.110557
-0.139667
-0.14977
-0.141358
-0.133132
-0.125655
-0.118652
-0.111541
-0.104305
-0.0970329
-0.0897691
-0.0825322
-0.0753292
-0.0681607
-0.0610189
-0.0538913
-0.0467655
-0.0396293
-0.0324725
-0.0252899
-0.0180827
-0.0108569
-0.00362
0.00362048
0.0108574
0.0180832
0.0252903
0.032473
0.0396298
0.046766
0.0538919
0.0610195
0.0681613
0.0753297
0.0825327
0.0897696
0.0970334
0.104305
0.111542
0.118653
0.125656
0.133132
0.141358
0.149771
0.139667
0.110558
0.0801654
0.0483104
0.0151735
-0.0188877
-0.0536374
-0.0889399
-0.124701
-0.160784
-0.196778
-0.231441
-0.262856
-0.266883
-0.247501
-0.230336
-0.213605
-0.196932
-0.18021
-0.163401
-0.146494
-0.12949
-0.112398
-0.0952308
-0.0779997
-0.0607177
-0.0433968
-0.0260489
-0.00868472
0.00896799
0.0268994
0.0448167
0.06271
0.0805688
0.0983812
0.116134
0.133815
0.151407
0.1689
0.186286
0.203568
0.220767
0.237881
0.254515
0.267195
0.250683
0.210591
0.17284
0.135389
0.0980784
0.0610145
0.0242954
-0.0119988
-0.0477667
-0.0827363
-0.1161
-0.147427
-0.159103
-0.151711
-0.143855
-0.135968
-0.128334
-0.120917
-0.113537
-0.10614
-0.0987378
-0.0913468
-0.0839786
-0.0766381
-0.0693253
-0.0620349
-0.0547591
-0.0474887
-0.0402153